
Host: c-ac-3-179.wireless.emory.edu

Timers On : Mon May 23 11:29:47 2016
Timers Off: Mon May 23 11:30:03 2016

Wall Time:       16.00 seconds

V: Grid     :       0.13u       0.02s       0.00w      4 calls
JK: (A|mn)  :       0.08u       0.00s       0.00w      4 calls
JK: (A|Q)^-1/2:       0.17u       0.00s       0.00w      4 calls
JK: (Q|mn)  :       0.02u       0.00s       0.00w      4 calls
HF: Form H  :       0.00u       0.00s       0.00w      4 calls
HF: Form S/X:       0.00u       0.00s       0.00w      4 calls
HF: Guess   :       0.78u       0.00s       0.00w      4 calls
HF: Form G  :      20.93u       0.58s      11.00w     58 calls
UKS: Form V :      21.80u       0.60s      13.00w     61 calls
V: D        :       0.00u       0.00s       0.00w     61 calls
V: USO2AO   :       0.02u       0.00s       0.00w     61 calls
V: V        :      21.78u       0.60s      13.00w     61 calls
Properties  :      11.55u       0.48s       6.00w   2684 calls
Points      :       8.30u       0.00s       4.00w   2684 calls
Functional  :       7.57u       0.03s       5.00w   2684 calls
V_XC        :       2.63u       0.05s       2.00w   2684 calls
LSDA        :       1.57u       0.02s       2.00w   5368 calls
GGA         :       0.97u       0.00s       0.00w   2684 calls
V: AO2USO   :       0.00u       0.00s       0.00w     61 calls
JK: D       :       0.00u       0.00s       0.00w     61 calls
JK: USO2AO  :       0.00u       0.00s       0.00w     61 calls
JK: JK      :       0.23u       0.02s       0.00w     61 calls
JK: J       :       0.03u       0.00s       0.00w     61 calls
JK: J1      :       0.02u       0.00s       0.00w    122 calls
JK: J2      :       0.00u       0.00s       0.00w    122 calls
JK: K       :       0.20u       0.02s       0.00w     61 calls
JK: K1      :       0.20u       0.02s       0.00w    122 calls
JK: K2      :       0.00u       0.00s       0.00w    122 calls
JK: AO2USO  :       0.00u       0.00s       0.00w     61 calls
HF: Form F  :       0.00u       0.00s       0.00w     58 calls
HF: DIIS    :       0.02u       0.00s       0.00w     58 calls
HF: Form C  :       0.12u       0.00s       0.00w     58 calls
HF: Form D  :       0.00u       0.00s       0.00w     58 calls
DIISManager::add_entry:       0.00u       0.00s       0.00w     57 calls
DIISManager::extrapolate:       0.00u       0.00s       0.00w     53 calls
DIISManager::extrapolate: bMatrix setup:       0.00u       0.00s       0.00w     53 calls
DIISManager::extrapolate: bMatrix pseudoinverse:       0.00u       0.00s       0.00w     53 calls
DIISManager::extrapolate: form new data:       0.00u       0.00s       0.00w     53 calls

***********************************************************

Host: c-ac-3-179.wireless.emory.edu

Timers On : Mon May 23 11:33:25 2016
Timers Off: Mon May 23 11:33:42 2016

Wall Time:       17.00 seconds

V: Grid     :       0.12u       0.02s       0.00w      4 calls
JK: (A|mn)  :       0.07u       0.00s       0.00w      4 calls
JK: (A|Q)^-1/2:       0.17u       0.00s       0.00w      4 calls
JK: (Q|mn)  :       0.02u       0.00s       0.00w      4 calls
HF: Form H  :       0.00u       0.02s       0.00w      4 calls
HF: Form S/X:       0.00u       0.00s       0.00w      4 calls
HF: Guess   :       0.78u       0.02s       0.00w      4 calls
HF: Form G  :      22.50u       0.62s      12.00w     58 calls
UKS: Form V :      23.63u       0.60s      14.00w     61 calls
V: D        :       0.00u       0.00s       0.00w     61 calls
V: USO2AO   :       0.00u       0.00s       0.00w     61 calls
V: V        :      23.63u       0.60s      14.00w     61 calls
Properties  :      12.47u       0.45s       6.00w   2684 calls
Points      :       8.87u       0.02s       6.00w   2684 calls
Functional  :       8.42u       0.02s       4.00w   2684 calls
V_XC        :       2.68u       0.07s       3.00w   2684 calls
LSDA        :       1.52u       0.00s       2.00w   5368 calls
GGA         :       1.08u       0.02s       1.00w   2684 calls
V: AO2USO   :       0.00u       0.00s       0.00w     61 calls
JK: D       :       0.00u       0.00s       0.00w     61 calls
JK: USO2AO  :       0.00u       0.00s       0.00w     61 calls
JK: JK      :       0.12u       0.03s       0.00w     61 calls
JK: J       :       0.00u       0.00s       0.00w     61 calls
JK: J1      :       0.00u       0.00s       0.00w    122 calls
JK: J2      :       0.00u       0.00s       0.00w    122 calls
JK: K       :       0.12u       0.03s       0.00w     61 calls
JK: K1      :       0.10u       0.02s       0.00w    122 calls
JK: K2      :       0.02u       0.00s       0.00w    122 calls
JK: AO2USO  :       0.00u       0.00s       0.00w     61 calls
HF: Form F  :       0.02u       0.00s       0.00w     58 calls
HF: DIIS    :       0.02u       0.02s       0.00w     58 calls
HF: Form C  :       0.15u       0.00s       0.00w     58 calls
HF: Form D  :       0.00u       0.00s       0.00w     58 calls
DIISManager::add_entry:       0.02u       0.00s       0.00w     57 calls
DIISManager::extrapolate:       0.00u       0.02s       0.00w     53 calls
DIISManager::extrapolate: bMatrix setup:       0.00u       0.00s       0.00w     53 calls
DIISManager::extrapolate: bMatrix pseudoinverse:       0.00u       0.00s       0.00w     53 calls
DIISManager::extrapolate: form new data:       0.00u       0.02s       0.00w     53 calls

***********************************************************

Host: c-ac-3-179.wireless.emory.edu

Timers On : Mon May 23 12:57:57 2016
Timers Off: Mon May 23 12:58:13 2016

Wall Time:       16.00 seconds

V: Grid     :       0.15u       0.02s       0.00w      4 calls
JK: (A|mn)  :       0.07u       0.00s       0.00w      4 calls
JK: (A|Q)^-1/2:       0.18u       0.00s       0.00w      4 calls
JK: (Q|mn)  :       0.00u       0.02s       0.00w      4 calls
HF: Form H  :       0.00u       0.00s       0.00w      4 calls
HF: Form S/X:       0.00u       0.00s       0.00w      4 calls
HF: Guess   :       0.77u       0.02s       1.00w      4 calls
HF: Form G  :      22.20u       0.60s      14.00w     58 calls
UKS: Form V :      23.18u       0.60s      14.00w     61 calls
V: D        :       0.00u       0.00s       0.00w     61 calls
V: USO2AO   :       0.00u       0.00s       0.00w     61 calls
V: V        :      23.18u       0.60s      14.00w     61 calls
Properties  :      12.40u       0.52s       6.00w   2684 calls
Points      :       9.07u       0.00s       5.00w   2684 calls
Functional  :       7.98u       0.07s       6.00w   2684 calls
V_XC        :       2.75u       0.00s       2.00w   2684 calls
LSDA        :       1.45u       0.00s       1.00w   5368 calls
GGA         :       1.18u       0.00s       1.00w   2684 calls
V: AO2USO   :       0.00u       0.00s       0.00w     61 calls
JK: D       :       0.00u       0.00s       0.00w     61 calls
JK: USO2AO  :       0.00u       0.00s       0.00w     61 calls
JK: JK      :       0.12u       0.02s       0.00w     61 calls
JK: J       :       0.00u       0.00s       0.00w     61 calls
JK: J1      :       0.00u       0.00s       0.00w    122 calls
JK: J2      :       0.00u       0.00s       0.00w    122 calls
JK: K       :       0.10u       0.02s       0.00w     61 calls
JK: K1      :       0.08u       0.02s       0.00w    122 calls
JK: K2      :       0.02u       0.00s       0.00w    122 calls
JK: AO2USO  :       0.00u       0.00s       0.00w     61 calls
HF: Form F  :       0.00u       0.00s       0.00w     58 calls
HF: DIIS    :       0.03u       0.02s       0.00w     58 calls
HF: Form C  :       0.22u       0.00s       0.00w     58 calls
HF: Form D  :       0.00u       0.00s       0.00w     58 calls
DIISManager::add_entry:       0.00u       0.00s       0.00w     57 calls
DIISManager::extrapolate:       0.00u       0.02s       0.00w     53 calls
DIISManager::extrapolate: bMatrix setup:       0.00u       0.02s       0.00w     53 calls
DIISManager::extrapolate: bMatrix pseudoinverse:       0.00u       0.00s       0.00w     53 calls
DIISManager::extrapolate: form new data:       0.00u       0.00s       0.00w     53 calls

***********************************************************

Host: CHE-FEVANGE

Timers On : Sun Aug 15 15:57:51 2021
Timers Off: Sun Aug 15 15:57:55 2021

Wall Time:        4.42 seconds

V: Grid                     :      0.433u      0.000s      0.528w      2 calls
DFH: initialize()           :      0.433u      0.017s      0.384w      2 calls
DFH: sparsity prep          :      0.133u      0.000s      0.086w      2 calls
DFH: AO Construction        :      0.083u      0.000s      0.051w      2 calls
DFH: AO-Met. Contraction    :      0.000u      0.000s      0.007w      2 calls
HF: Form H                  :      0.000u      0.017s      0.009w      2 calls
HF: Form S/X                :      0.000u      0.000s      0.001w      2 calls
HF: Guess                   :      0.333u      0.000s      0.252w      1 calls
SAD Guess                   :      0.333u      0.000s      0.251w      1 calls
HF: Form G                  :      3.333u      0.083s      2.229w     10 calls
RKS: Form V                 :      3.317u      0.083s      2.219w     10 calls
Properties                  :      1.683u      0.067s      1.127w   3870 calls
Functional                  :      1.067u      0.017s      0.650w   3870 calls
V_xc                        :      0.467u      0.000s      0.367w   3870 calls
JK: D                       :      0.000u      0.000s      0.000w     10 calls
JK: USO2AO                  :      0.000u      0.000s      0.000w     10 calls
JK: JK                      :      0.017u      0.000s      0.008w     10 calls
DFH: compute_JK()           :      0.017u      0.000s      0.008w     10 calls
DFH: Grabbing AOs           :      0.000u      0.000s      0.000w     10 calls
DFH: compute_J              :      0.000u      0.000s      0.002w     10 calls
DFH: compute_K              :      0.017u      0.000s      0.006w     10 calls
JK: AO2USO                  :      0.000u      0.000s      0.000w     10 calls
HF: Form F                  :      0.000u      0.000s      0.000w     10 calls
HF: DIIS                    :      0.000u      0.000s      0.006w     10 calls
DIISManager::add_entry      :      0.000u      0.000s      0.002w      9 calls
DIISManager::extrapolate    :      0.000u      0.000s      0.002w      8 calls
bMatrix setup               :      0.000u      0.000s      0.001w      8 calls
bMatrix pseudoinverse       :      0.000u      0.000s      0.000w      8 calls
New vector                  :      0.000u      0.000s      0.001w      8 calls
HF: Form C                  :      0.017u      0.000s      0.003w     10 calls
HF: Form D                  :      0.000u      0.000s      0.000w     10 calls

-----------------------------------------------------------
V: Grid                     :      0.433u      0.000s      0.528w      2 calls
DFH: initialize()           :      0.433u      0.017s      0.384w      2 calls
| DFH: sparsity prep        :      0.133u      0.000s      0.086w      2 calls
| DFH: AO Construction      :      0.083u      0.000s      0.051w      2 calls
| DFH: AO-Met. Contraction  :      0.000u      0.000s      0.007w      2 calls
HF: Form H                  :      0.000u      0.017s      0.009w      2 calls
HF: Form S/X                :      0.000u      0.000s      0.001w      2 calls
HF: Guess                   :      0.333u      0.000s      0.252w      2 calls
| SAD Guess                 :      0.333u      0.000s      0.251w      1 calls
HF: Form G                  :      3.333u      0.083s      2.229w     10 calls
| RKS: Form V               :      3.317u      0.083s      2.219w     10 calls
| | Properties              :      1.683u      0.067s      1.127w   3870 calls
| | Functional              :      1.067u      0.017s      0.650w   3870 calls
| | V_xc                    :      0.467u      0.000s      0.367w   3870 calls
| JK: D                     :      0.000u      0.000s      0.000w     10 calls
| JK: USO2AO                :      0.000u      0.000s      0.000w     10 calls
| JK: JK                    :      0.017u      0.000s      0.008w     10 calls
| | DFH: compute_JK()       :      0.017u      0.000s      0.008w     10 calls
| | | DFH: Grabbing AOs     :      0.000u      0.000s      0.000w     10 calls
| | | DFH: compute_J        :      0.000u      0.000s      0.002w     10 calls
| | | DFH: compute_K        :      0.017u      0.000s      0.006w     10 calls
| JK: AO2USO                :      0.000u      0.000s      0.000w     10 calls
HF: Form F                  :      0.000u      0.000s      0.000w     10 calls
HF: DIIS                    :      0.000u      0.000s      0.006w     10 calls
| DIISManager::add_entry    :      0.000u      0.000s      0.002w      9 calls
| DIISManager::extrapolate  :      0.000u      0.000s      0.002w      8 calls
| | bMatrix setup           :      0.000u      0.000s      0.001w      8 calls
| | bMatrix pseudoinverse   :      0.000u      0.000s      0.000w      8 calls
| | New vector              :      0.000u      0.000s      0.001w      8 calls
HF: Form C                  :      0.017u      0.000s      0.003w     10 calls
HF: Form D                  :      0.000u      0.000s      0.000w     10 calls

***********************************************************

Host: CHE-FEVANGE

Timers On : Sun Aug 15 15:58:04 2021
Timers Off: Sun Aug 15 15:58:10 2021

Wall Time:        5.97 seconds

V: Grid                     :      0.333u      0.000s      0.201w      2 calls
DFH: initialize()           :      0.300u      0.017s      0.204w      2 calls
DFH: sparsity prep          :      0.100u      0.017s      0.060w      2 calls
DFH: AO Construction        :      0.050u      0.000s      0.036w      2 calls
DFH: AO-Met. Contraction    :      0.000u      0.000s      0.004w      2 calls
HF: Form H                  :      0.017u      0.000s      0.004w      2 calls
HF: Form S/X                :      0.000u      0.000s      0.001w      2 calls
HF: Guess                   :      0.000u      0.000s      0.001w      2 calls
HF: Form G                  :      7.667u      0.133s      4.909w     24 calls
RKS: Form V                 :      7.600u      0.133s      4.889w     24 calls
Properties                  :      3.667u      0.083s      2.467w   9288 calls
Functional                  :      2.400u      0.000s      1.445w   9288 calls
V_xc                        :      1.367u      0.017s      0.813w   9288 calls
JK: D                       :      0.000u      0.000s      0.000w     24 calls
JK: USO2AO                  :      0.000u      0.000s      0.000w     24 calls
JK: JK                      :      0.067u      0.000s      0.018w     24 calls
DFH: compute_JK()           :      0.067u      0.000s      0.018w     24 calls
DFH: Grabbing AOs           :      0.000u      0.000s      0.000w     24 calls
DFH: compute_J              :      0.017u      0.000s      0.004w     24 calls
DFH: compute_K              :      0.033u      0.000s      0.012w     24 calls
JK: AO2USO                  :      0.000u      0.000s      0.000w     24 calls
HF: Form F                  :      0.000u      0.000s      0.000w     24 calls
HF: DIIS                    :      0.033u      0.000s      0.015w     24 calls
DIISManager::add_entry      :      0.000u      0.000s      0.006w     24 calls
DIISManager::extrapolate    :      0.017u      0.000s      0.006w     22 calls
bMatrix setup               :      0.017u      0.000s      0.001w     22 calls
bMatrix pseudoinverse       :      0.000u      0.000s      0.001w     22 calls
New vector                  :      0.000u      0.000s      0.003w     22 calls
HF: Form C                  :      0.017u      0.000s      0.008w     24 calls
HF: Form D                  :      0.000u      0.000s      0.000w     24 calls

-----------------------------------------------------------
V: Grid                     :      0.333u      0.000s      0.201w      2 calls
DFH: initialize()           :      0.300u      0.017s      0.204w      2 calls
| DFH: sparsity prep        :      0.100u      0.017s      0.060w      2 calls
| DFH: AO Construction      :      0.050u      0.000s      0.036w      2 calls
| DFH: AO-Met. Contraction  :      0.000u      0.000s      0.004w      2 calls
HF: Form H                  :      0.017u      0.000s      0.004w      2 calls
HF: Form S/X                :      0.000u      0.000s      0.001w      2 calls
HF: Guess                   :      0.000u      0.000s      0.001w      2 calls
HF: Form G                  :      7.667u      0.133s      4.909w     24 calls
| RKS: Form V               :      7.600u      0.133s      4.889w     24 calls
| | Properties              :      3.667u      0.083s      2.467w   9288 calls
| | Functional              :      2.400u      0.000s      1.445w   9288 calls
| | V_xc                    :      1.367u      0.017s      0.813w   9288 calls
| JK: D                     :      0.000u      0.000s      0.000w     24 calls
| JK: USO2AO                :      0.000u      0.000s      0.000w     24 calls
| JK: JK                    :      0.067u      0.000s      0.018w     24 calls
| | DFH: compute_JK()       :      0.067u      0.000s      0.018w     24 calls
| | | DFH: Grabbing AOs     :      0.000u      0.000s      0.000w     24 calls
| | | DFH: compute_J        :      0.017u      0.000s      0.004w     24 calls
| | | DFH: compute_K        :      0.033u      0.000s      0.012w     24 calls
| JK: AO2USO                :      0.000u      0.000s      0.000w     24 calls
HF: Form F                  :      0.000u      0.000s      0.000w     24 calls
HF: DIIS                    :      0.033u      0.000s      0.015w     24 calls
| DIISManager::add_entry    :      0.000u      0.000s      0.006w     24 calls
| DIISManager::extrapolate  :      0.017u      0.000s      0.006w     22 calls
| | bMatrix setup           :      0.017u      0.000s      0.001w     22 calls
| | bMatrix pseudoinverse   :      0.000u      0.000s      0.001w     22 calls
| | New vector              :      0.000u      0.000s      0.003w     22 calls
HF: Form C                  :      0.017u      0.000s      0.008w     24 calls
HF: Form D                  :      0.000u      0.000s      0.000w     24 calls

***********************************************************

Host: CHE-FEVANGE

Timers On : Sun Aug 15 16:00:15 2021
Timers Off: Sun Aug 15 16:00:22 2021

Wall Time:        6.97 seconds

V: Grid                     :      0.383u      0.017s      0.261w      2 calls
DFH: initialize()           :      0.383u      0.017s      0.321w      2 calls
DFH: sparsity prep          :      0.117u      0.017s      0.080w      2 calls
DFH: AO Construction        :      0.050u      0.000s      0.052w      2 calls
DFH: AO-Met. Contraction    :      0.017u      0.000s      0.009w      2 calls
HF: Form H                  :      0.017u      0.000s      0.004w      2 calls
HF: Form S/X                :      0.000u      0.000s      0.001w      2 calls
HF: Guess                   :      0.000u      0.000s      0.001w      2 calls
HF: Form G                  :      8.300u      0.200s      5.679w     24 calls
RKS: Form V                 :      8.267u      0.200s      5.656w     24 calls
Properties                  :      4.117u      0.067s      2.865w   9288 calls
Functional                  :      2.367u      0.067s      1.630w   9288 calls
V_xc                        :      1.417u      0.050s      0.968w   9288 calls
JK: D                       :      0.000u      0.000s      0.000w     24 calls
JK: USO2AO                  :      0.000u      0.000s      0.000w     24 calls
JK: JK                      :      0.033u      0.000s      0.021w     24 calls
DFH: compute_JK()           :      0.033u      0.000s      0.020w     24 calls
DFH: Grabbing AOs           :      0.000u      0.000s      0.000w     24 calls
DFH: compute_J              :      0.000u      0.000s      0.004w     24 calls
DFH: compute_K              :      0.033u      0.000s      0.015w     24 calls
JK: AO2USO                  :      0.000u      0.000s      0.000w     24 calls
HF: Form F                  :      0.000u      0.000s      0.000w     24 calls
HF: DIIS                    :      0.000u      0.000s      0.014w     24 calls
DIISManager::add_entry      :      0.000u      0.000s      0.004w     24 calls
DIISManager::extrapolate    :      0.000u      0.000s      0.006w     22 calls
bMatrix setup               :      0.000u      0.000s      0.002w     22 calls
bMatrix pseudoinverse       :      0.000u      0.000s      0.001w     22 calls
New vector                  :      0.000u      0.000s      0.004w     22 calls
HF: Form C                  :      0.017u      0.000s      0.009w     24 calls
HF: Form D                  :      0.033u      0.000s      0.000w     24 calls

-----------------------------------------------------------
V: Grid                     :      0.383u      0.017s      0.261w      2 calls
DFH: initialize()           :      0.383u      0.017s      0.321w      2 calls
| DFH: sparsity prep        :      0.117u      0.017s      0.080w      2 calls
| DFH: AO Construction      :      0.050u      0.000s      0.052w      2 calls
| DFH: AO-Met. Contraction  :      0.017u      0.000s      0.009w      2 calls
HF: Form H                  :      0.017u      0.000s      0.004w      2 calls
HF: Form S/X                :      0.000u      0.000s      0.001w      2 calls
HF: Guess                   :      0.000u      0.000s      0.001w      2 calls
HF: Form G                  :      8.300u      0.200s      5.679w     24 calls
| RKS: Form V               :      8.267u      0.200s      5.656w     24 calls
| | Properties              :      4.117u      0.067s      2.865w   9288 calls
| | Functional              :      2.367u      0.067s      1.630w   9288 calls
| | V_xc                    :      1.417u      0.050s      0.968w   9288 calls
| JK: D                     :      0.000u      0.000s      0.000w     24 calls
| JK: USO2AO                :      0.000u      0.000s      0.000w     24 calls
| JK: JK                    :      0.033u      0.000s      0.021w     24 calls
| | DFH: compute_JK()       :      0.033u      0.000s      0.020w     24 calls
| | | DFH: Grabbing AOs     :      0.000u      0.000s      0.000w     24 calls
| | | DFH: compute_J        :      0.000u      0.000s      0.004w     24 calls
| | | DFH: compute_K        :      0.033u      0.000s      0.015w     24 calls
| JK: AO2USO                :      0.000u      0.000s      0.000w     24 calls
HF: Form F                  :      0.000u      0.000s      0.000w     24 calls
HF: DIIS                    :      0.000u      0.000s      0.014w     24 calls
| DIISManager::add_entry    :      0.000u      0.000s      0.004w     24 calls
| DIISManager::extrapolate  :      0.000u      0.000s      0.006w     22 calls
| | bMatrix setup           :      0.000u      0.000s      0.002w     22 calls
| | bMatrix pseudoinverse   :      0.000u      0.000s      0.001w     22 calls
| | New vector              :      0.000u      0.000s      0.004w     22 calls
HF: Form C                  :      0.017u      0.000s      0.009w     24 calls
HF: Form D                  :      0.033u      0.000s      0.000w     24 calls

***********************************************************
