    -----------------------------------------------------------------------
          Psi4: An Open-Source Ab Initio Electronic Structure Package
                              Psi4 0.4.114 Driver

                          Git: Rev {master} 13bf41b 

    J. M. Turney, A. C. Simmonett, R. M. Parrish, E. G. Hohenstein,
    F. A. Evangelista, J. T. Fermann, B. J. Mintz, L. A. Burns, J. J. Wilke,
    M. L. Abrams, N. J. Russ, M. L. Leininger, C. L. Janssen, E. T. Seidl,
    W. D. Allen, H. F. Schaefer, R. A. King, E. F. Valeev, C. D. Sherrill,
    and T. D. Crawford, WIREs Comput. Mol. Sci. 2, 556-565 (2012)
    (doi: 10.1002/wcms.93)

                         Additional Contributions by
    A. E. DePrince, M. Saitow, U. Bozkaya, A. Yu. Sokolov
    -----------------------------------------------------------------------


    Psi4 started on: Mon May 23 12:55:46 2016

    Process ID:  98028
    PSI4DATADIR: /Users/wderri2/Source/psi4/share
    Memory level set to 256.000 MB

  ==> Input File <==

--------------------------------------------------------------------------
#! OCDFT CPH algorithm test, B3LYP computation on ethene

import cdft
refdft                = -78.531369464 #TEST
refocdft_singlet_spin = -78.261631126 #TEST
refocdft_triplet_spin = -78.363363976 #TEST

molecule {
0 1
H   0.000000   0.923274   1.238289
H   0.000000  -0.923274   1.238289
H   0.000000   0.923274  -1.238289
H   0.000000  -0.923274  -1.238289
C   0.000000   0.000000   0.668188
C   0.000000   0.000000  -0.668188
}

set {
  basis def2-svp
  df_basis_scf def2-svp-jkfit
  scf_type df
  reference uks
  maxiter 100
  e_convergence 11 
  d_convergence 6
}

set cdft {
  roots_per_irrep [0,0,0,0,0,1,0,0]
  cdft_exc_method ch
}

set dft_functional B3LYP

energy('ocdft')

compare_values(refdft, get_variable("DFT ENERGY"),8, "DFT energy") #TEST
compare_values(refocdft_singlet_spin, get_variable("OCDFT SINGLET ENERGY"),8, "OCDFT singlet energy") #TEST
compare_values(refocdft_triplet_spin, get_variable("OCDFT TRIPLET ENERGY"),8, "OCDFT triplet energy") #TEST
--------------------------------------------------------------------------
/Users/wderri2/Source/cdft/cdft.so loaded.

Reading options from the CDFT block
Calling plugin /Users/wderri2/Source/cdft/cdft.so.



  ==> Orthogonality Constrained DFT <==

         ---------------------------------------------------------
                                   SCF
            by Justin Turney, Rob Parrish, and Andy Simmonett
                              UKS Reference
                        1 Threads,    256 MiB Core
         ---------------------------------------------------------

  ==> Geometry <==

    Molecular point group: d2h
    Full point group: D2h

    Geometry (in Angstrom), charge = 0, multiplicity = 1:

       Center              X                  Y                   Z               Mass       
    ------------   -----------------  -----------------  -----------------  -----------------
           H         -0.000000000000     0.923274000000     1.238289000000     1.007825032070
           H          0.000000000000    -0.923274000000     1.238289000000     1.007825032070
           H         -0.000000000000     0.923274000000    -1.238289000000     1.007825032070
           H          0.000000000000    -0.923274000000    -1.238289000000     1.007825032070
           C          0.000000000000     0.000000000000     0.668188000000    12.000000000000
           C          0.000000000000     0.000000000000    -0.668188000000    12.000000000000

  Running in d2h symmetry.

  Rotational constants: A =      4.90558  B =      0.99768  C =      0.82907 [cm^-1]
  Rotational constants: A = 147065.51639  B =  29909.67957  C =  24854.79644 [MHz]
  Nuclear repulsion =   33.298097662285691

  Charge       = 0
  Multiplicity = 1
  Electrons    = 16
  Nalpha       = 8
  Nbeta        = 8

  ==> Algorithm <==

  SCF Algorithm Type is DF.
  DIIS enabled.
  MOM disabled.
  Fractional occupation disabled.
  Guess Type is CORE.
  Energy threshold   = 1.00e-11
  Density threshold  = 1.00e-06
  Integral threshold = 1.00e-12

  ==> Primary Basis <==

  Basis Set: DEF2-SVP
    Number of shells: 24
    Number of basis function: 48
    Number of Cartesian functions: 50
    Spherical Harmonics?: true
    Max angular momentum: 2

  ==> DFT Potential <==

   => B3LYP Composite Functional <= 

    B3LYP Hybrid-GGA Exchange-Correlation Functional

    P.J. Stephens et. al., J. Phys. Chem., 98, 11623-11627, 1994

    Points   =           5000
    Deriv    =              1
    GGA      =           TRUE
    Meta     =          FALSE

    X_LRC        =          FALSE
    X_Hybrid     =           TRUE
    X_Alpha      =   2.000000E-01
    X_Omega      =   0.000000E+00
    C_LRC        =          FALSE
    C_Hybrid     =          FALSE
    C_Alpha      =   0.000000E+00
    C_Omega      =   0.000000E+00

   => Exchange Functionals <=

    0.8000    B3_X
    0.2000      HF 

   => Correlation Functionals <=

    0.1900 VWN3RPA_C
    0.8100   LYP_C

   => Molecular Quadrature <=

    Radial Scheme    =       TREUTLER
    Pruning Scheme   =           FLAT
    Nuclear Scheme   =       TREUTLER

    BS radius alpha  =              1
    Pruning alpha    =              1
    Radial Points    =             75
    Spherical Points =            302
    Total Points     =         133224
    Total Blocks     =            124
    Max Points       =           4721
    Max Functions    =             48


  ==> Unrestricted Orthogonality Constrained DFT (OCDFT) <==

  ==> Pre-Iterations <==

   -------------------------------------------------------
    Irrep   Nso     Nmo     Nalpha   Nbeta   Ndocc  Nsocc
   -------------------------------------------------------
     Ag        11      11       0       0       0       0
     B1g        2       2       0       0       0       0
     B2g        4       4       0       0       0       0
     B3g        7       7       0       0       0       0
     Au         2       2       0       0       0       0
     B1u       11      11       0       0       0       0
     B2u        7       7       0       0       0       0
     B3u        4       4       0       0       0       0
   -------------------------------------------------------
    Total      48      48       8       8       8       0
   -------------------------------------------------------

  ==> Integral Setup <==

  ==> DFJK: Density-Fitted J/K Matrices <==

    J tasked:                  Yes
    K tasked:                  Yes
    wK tasked:                  No
    OpenMP threads:              1
    Integrals threads:           1
    Memory (MB):               183
    Algorithm:                Core
    Integral Cache:           NONE
    Schwarz Cutoff:          1E-12
    Fitting Condition:       1E-12

   => Auxiliary Basis Set <=

  Basis Set: DEF2-SVP-JKFIT
    Number of shells: 74
    Number of basis function: 222
    Number of Cartesian functions: 258
    Spherical Harmonics?: true
    Max angular momentum: 4

  Minimum eigenvalue in the overlap matrix is 4.0241768173E-03.
  Using Symmetric Orthogonalization.
  SCF Guess: Core (One-Electron) Hamiltonian.

  ==> Iterations <==

                           Total Energy        Delta E     RMS |[F,P]|

    Occupation by irrep:
             Ag   B1g   B2g   B3g    Au   B1u   B2u   B3u 
    DOCC [     3,    0,    0,    1,    0,    3,    1,    0 ]
    SOCC [     0,    0,    0,    0,    0,    0,    0,    0 ]

   @DF-UKS iter   1:   -64.88602626599260   -6.48860e+01   1.35169e+00 
    Occupation by irrep:
             Ag   B1g   B2g   B3g    Au   B1u   B2u   B3u 
    DOCC [     3,    0,    0,    1,    0,    2,    1,    1 ]
    SOCC [     0,    0,    0,    0,    0,    0,    0,    0 ]

   @DF-UKS iter   2:   -69.84704550066428   -4.96102e+00   1.33523e+00 DIIS
   @DF-UKS iter   3:   -77.90451136600313   -8.05747e+00   2.57231e-02 DIIS
   @DF-UKS iter   4:   -78.47321257956233   -5.68701e-01   1.27086e-02 DIIS
   @DF-UKS iter   5:   -78.52646274094127   -5.32502e-02   3.55168e-03 DIIS
   @DF-UKS iter   6:   -78.53136392441546   -4.90118e-03   1.77925e-04 DIIS
   @DF-UKS iter   7:   -78.53136941030488   -5.48589e-06   1.19092e-05 DIIS
   @DF-UKS iter   8:   -78.53136946399198   -5.36871e-08   9.50287e-07 DIIS
   @DF-UKS iter   9:   -78.53136946411620   -1.24217e-10   6.83456e-08 DIIS
   @DF-UKS iter  10:   -78.53136946411681   -6.11067e-13   9.28670e-09 DIIS

  ==> Post-Iterations <==

   @Spin Contamination Metric:   3.552713679E-15
   @S^2 Expected:                0.000000000E+00
   @S^2 Observed:                3.552713679E-15
   @S   Expected:                0.000000000E+00
   @S   Observed:                0.000000000E+00

    Orbital Energies (a.u.)
    -----------------------

    Alpha Occupied:                                                       

       1Ag   -10.189145     1B1u  -10.188474     2Ag    -0.751707  
       2B1u   -0.575188     1B2u   -0.468594     3Ag    -0.421786  
       1B3g   -0.357303     1B3u   -0.275257  

    Alpha Virtual:                                                        

       1B2g    0.004647     4Ag     0.084172     2B2u    0.104552  
       3B1u    0.115818     2B3g    0.185443     4B1u    0.323598  
       5Ag     0.397141     3B2u    0.431763     6Ag     0.441222  
       2B3u    0.488672     5B1u    0.548487     2B2g    0.573880  
       7Ag     0.650633     6B1u    0.672655     4B2u    0.678817  
       3B3g    0.689989     7B1u    0.806619     4B3g    1.041167  
       1B1g    1.175500     1Au     1.236001     3B3u    1.268540  
       5B3g    1.580948     5B2u    1.628433     8Ag     1.631884  
       3B2g    1.700911     8B1u    1.744614     6B2u    1.768178  
       9Ag     1.815646     4B3u    1.919735     2B1g    2.072296  
       9B1u    2.160075     6B3g    2.235055    10Ag     2.381545  
       2Au     2.386615     4B2g    2.475783    11Ag     2.697744  
       7B2u    2.787886    10B1u    2.817137    11B1u    3.063449  
       7B3g    3.326682  

    Beta Occupied:                                                        

       1Ag   -10.189145     1B1u  -10.188474     2Ag    -0.751707  
       2B1u   -0.575188     1B2u   -0.468594     3Ag    -0.421786  
       1B3g   -0.357303     1B3u   -0.275257  

    Beta Virtual:                                                         

       1B2g    0.004647     4Ag     0.084172     2B2u    0.104552  
       3B1u    0.115818     2B3g    0.185443     4B1u    0.323598  
       5Ag     0.397141     3B2u    0.431763     6Ag     0.441222  
       2B3u    0.488672     5B1u    0.548487     2B2g    0.573880  
       7Ag     0.650633     6B1u    0.672655     4B2u    0.678817  
       3B3g    0.689989     7B1u    0.806619     4B3g    1.041167  
       1B1g    1.175500     1Au     1.236001     3B3u    1.268540  
       5B3g    1.580948     5B2u    1.628433     8Ag     1.631884  
       3B2g    1.700911     8B1u    1.744614     6B2u    1.768178  
       9Ag     1.815646     4B3u    1.919735     2B1g    2.072296  
       9B1u    2.160075     6B3g    2.235055    10Ag     2.381545  
       2Au     2.386615     4B2g    2.475783    11Ag     2.697744  
       7B2u    2.787886    10B1u    2.817137    11B1u    3.063449  
       7B3g    3.326682  

    Final Occupation by Irrep:
             Ag   B1g   B2g   B3g    Au   B1u   B2u   B3u 
    DOCC [     3,    0,    0,    1,    0,    2,    1,    1 ]
    SOCC [     0,    0,    0,    0,    0,    0,    0,    0 ]

  Energy converged.

  @DF-UKS Final Energy:   -78.53136946411681

   => Energetics <=

    Nuclear Repulsion Energy =             33.2980976622856915
    One-Electron Energy =                -170.0559855812671515
    Two-Electron Energy =                  68.1615791475263819
    DFT Exchange-Correlation Energy =      -9.9350606926617289
    Empirical Dispersion Energy =           0.0000000000000000
    PCM Polarization Energy =               0.0000000000000000
    EFP Energy =                            0.0000000000000000
    Total Energy =                        -78.5313694641168070

    Alert: EFP and PCM quantities not currently incorporated into SCF psivars.

Properties will be evaluated at   0.000000,   0.000000,   0.000000 Bohr
  ==> Properties <==


Properties computed using the SCF density matrix

  Nuclear Dipole Moment: (a.u.)
     X:     0.0000      Y:     0.0000      Z:     0.0000

  Electronic Dipole Moment: (a.u.)
     X:     0.0000      Y:     0.0000      Z:     0.0000

  Dipole Moment: (a.u.)
     X:     0.0000      Y:     0.0000      Z:     0.0000     Total:     0.0000

  Dipole Moment: (Debye)
     X:     0.0000      Y:     0.0000      Z:     0.0000     Total:     0.0000


  Saving occupied orbitals to File 180.

  UHF NO Occupations:
  HONO-2 :    2 Ag 2.0000000
  HONO-1 :    3 Ag 2.0000000
  HONO-0 :    2B1u 2.0000000
  LUNO+0 :    4 Ag 0.0000000
  LUNO+1 :    3B1u 0.0000000
  LUNO+2 :    4B1u 0.0000000
  LUNO+3 :    2B3g 0.0000000



  ==== Computing 1 state of symmetry 5 ====

         ---------------------------------------------------------
                                   SCF
            by Justin Turney, Rob Parrish, and Andy Simmonett
                              UKS Reference
                        1 Threads,    256 MiB Core
         ---------------------------------------------------------

  ==> Geometry <==

    Molecular point group: d2h
    Full point group: D2h

    Geometry (in Angstrom), charge = 0, multiplicity = 1:

       Center              X                  Y                   Z               Mass       
    ------------   -----------------  -----------------  -----------------  -----------------
           H         -0.000000000000     0.923274000000     1.238289000000     1.007825032070
           H          0.000000000000    -0.923274000000     1.238289000000     1.007825032070
           H         -0.000000000000     0.923274000000    -1.238289000000     1.007825032070
           H          0.000000000000    -0.923274000000    -1.238289000000     1.007825032070
           C          0.000000000000     0.000000000000     0.668188000000    12.000000000000
           C          0.000000000000     0.000000000000    -0.668188000000    12.000000000000

  Running in d2h symmetry.

  Rotational constants: A =      4.90558  B =      0.99768  C =      0.82907 [cm^-1]
  Rotational constants: A = 147065.51639  B =  29909.67957  C =  24854.79644 [MHz]
  Nuclear repulsion =   33.298097662285691

  Charge       = 0
  Multiplicity = 1
  Electrons    = 16
  Nalpha       = 8
  Nbeta        = 8

  ==> Algorithm <==

  SCF Algorithm Type is DF.
  DIIS enabled.
  MOM disabled.
  Fractional occupation disabled.
  Guess Type is CORE.
  Energy threshold   = 1.00e-11
  Density threshold  = 1.00e-06
  Integral threshold = 1.00e-12

  ==> Primary Basis <==

  Basis Set: DEF2-SVP
    Number of shells: 24
    Number of basis function: 48
    Number of Cartesian functions: 50
    Spherical Harmonics?: true
    Max angular momentum: 2

  ==> DFT Potential <==

   => B3LYP Composite Functional <= 

    B3LYP Hybrid-GGA Exchange-Correlation Functional

    P.J. Stephens et. al., J. Phys. Chem., 98, 11623-11627, 1994

    Points   =           5000
    Deriv    =              1
    GGA      =           TRUE
    Meta     =          FALSE

    X_LRC        =          FALSE
    X_Hybrid     =           TRUE
    X_Alpha      =   2.000000E-01
    X_Omega      =   0.000000E+00
    C_LRC        =          FALSE
    C_Hybrid     =          FALSE
    C_Alpha      =   0.000000E+00
    C_Omega      =   0.000000E+00

   => Exchange Functionals <=

    0.8000    B3_X
    0.2000      HF 

   => Correlation Functionals <=

    0.1900 VWN3RPA_C
    0.8100   LYP_C

   => Molecular Quadrature <=

    Radial Scheme    =       TREUTLER
    Pruning Scheme   =           FLAT
    Nuclear Scheme   =       TREUTLER

    BS radius alpha  =              1
    Pruning alpha    =              1
    Radial Points    =             75
    Spherical Points =            302
    Total Points     =         133224
    Total Blocks     =            124
    Max Points       =           4721
    Max Functions    =             48


  ==> Unrestricted Orthogonality Constrained DFT (OCDFT) <==


  ==> OCDFT Algorithm Details <==
  Excited State Type: VALENCE
  Total Number of Roots: 0
  Number of Roots Per Hole: 1
  Excited State Algorithm: 
  Projection Algorithm: H (Hole Projection)
  
  
    ==> Pre-Iterations <==

   -------------------------------------------------------
    Irrep   Nso     Nmo     Nalpha   Nbeta   Ndocc  Nsocc
   -------------------------------------------------------
     Ag        11      11       3       3       0       0
     B1g        2       2       0       0       0       0
     B2g        4       4       0       0       0       0
     B3g        7       7       1       1       0       0
     Au         2       2       0       0       0       0
     B1u       11      11       2       2       0       0
     B2u        7       7       1       1       0       0
     B3u        4       4       1       1       0       0
   -------------------------------------------------------
    Total      48      48       8       8       8       0
   -------------------------------------------------------

  ==> Integral Setup <==

  ==> DFJK: Density-Fitted J/K Matrices <==

    J tasked:                  Yes
    K tasked:                  Yes
    wK tasked:                  No
    OpenMP threads:              1
    Integrals threads:           1
    Memory (MB):               183
    Algorithm:                Core
    Integral Cache:           NONE
    Schwarz Cutoff:          1E-12
    Fitting Condition:       1E-12

   => Auxiliary Basis Set <=

  Basis Set: DEF2-SVP-JKFIT
    Number of shells: 74
    Number of basis function: 222
    Number of Cartesian functions: 258
    Spherical Harmonics?: true
    Max angular momentum: 4

  Minimum eigenvalue in the overlap matrix is 4.0241768173E-03.
  Using Symmetric Orthogonalization.


  ==> Chosen Hole/Particle pairs <==
  --------------------------------------
    N   Occupied     Virtual     E(eV)  
  --------------------------------------
    1      1B3u  ->    1B2g       7.617
    2      1B3g  ->    2B2u      12.568
    3      3Ag   ->    3B1u      14.629
    4      1B2u  ->    2B3g      17.797
    5      2B1u  ->    4Ag       17.942
    6      3Ag   ->    4B1u      20.283
    7      1B3g  ->    3B2u      21.472
    8      1B3u  ->    2B2g      23.106
    9      2Ag   ->    3B1u      23.607
   10      3Ag   ->    5B1u      26.402
  --------------------------------------
HOLE:      1B3u (-0.275257)
PARTICLE:   1B2g (+0.004647)
  ==> Iterations <==

                           Total Energy        Delta E     RMS |[F,P]|

HOLE:      1B3u (-0.239308)
PARTICLE:   1B2g (-0.075950)
   @DF-UKS iter   1:   -78.30936290935686   -2.68977e+01   5.77550e-03 
HOLE:      1B3u (-0.226165)
PARTICLE:   1B2g (-0.066421)
   @DF-UKS iter   2:   -78.31054850903941   -1.18560e-03   1.59635e-03 DIIS
HOLE:      1B3u (-0.222731)
PARTICLE:   1B2g (-0.065262)
   @DF-UKS iter   3:   -78.31238008564128   -1.83158e-03   5.27017e-04 DIIS
HOLE:      1B3u (-0.222699)
PARTICLE:   1B2g (-0.065194)
   @DF-UKS iter   4:   -78.31249680966981   -1.16724e-04   3.39948e-05 DIIS
HOLE:      1B3u (-0.222642)
PARTICLE:   1B2g (-0.065186)
   @DF-UKS iter   5:   -78.31249741994725   -6.10277e-07   1.05664e-05 DIIS
HOLE:      1B3u (-0.222647)
PARTICLE:   1B2g (-0.065189)
   @DF-UKS iter   6:   -78.31249755001353   -1.30066e-07   4.34601e-07 DIIS
HOLE:      1B3u (-0.222648)
PARTICLE:   1B2g (-0.065189)
   @DF-UKS iter   7:   -78.31249755111239   -1.09885e-09   6.86699e-08 DIIS
HOLE:      1B3u (-0.222648)
PARTICLE:   1B2g (-0.065190)
   @DF-UKS iter   8:   -78.31249755114955   -3.71614e-11   1.95755e-08 DIIS
HOLE:      1B3u (-0.222648)
PARTICLE:   1B2g (-0.065190)
   @DF-UKS iter   9:   -78.31249755114982   -2.70006e-13   1.94139e-09 DIIS

  ==> Post-Iterations <==

   @Spin Contamination Metric:   1.000308805E+00
   @S^2 Expected:                0.000000000E+00
   @S^2 Observed:                1.000308805E+00
   @S   Expected:                0.000000000E+00
   @S   Observed:                0.000000000E+00

    Orbital Energies (a.u.)
    -----------------------

    Alpha Occupied:                                                       

       1Ag   -10.196497     1B1u  -10.195975     2Ag    -0.763113  
       2B1u   -0.580356     1B2u   -0.477073     3Ag    -0.431477  
       1B3g   -0.361495     1B2g   -0.065190  

    Alpha Virtual:                                                        

       4Ag     0.081842     2B2u    0.100029     3B1u    0.114654  
       2B3g    0.183714     4B1u    0.320235     5Ag     0.390510  
       3B2u    0.426795     6Ag     0.438180     1B3u    0.481668  
       5B1u    0.537180     2B2g    0.557658     7Ag     0.648987  
       6B1u    0.667073     4B2u    0.669808     3B3g    0.683560  
       7B1u    0.794741     4B3g    1.034715     1B1g    1.169829  
       1Au     1.228960     2B3u    1.260635     5B3g    1.580085  
       5B2u    1.627190     8Ag     1.628171     3B2g    1.696952  
       8B1u    1.739519     6B2u    1.759455     9Ag     1.803510  
       3B3u    1.911993     2B1g    2.063873     9B1u    2.152440  
       6B3g    2.230558    10Ag     2.374226     2Au     2.374626  
       4B2g    2.463471    11Ag     2.691076     7B2u    2.780738  
      10B1u    2.807395    11B1u    3.054668     7B3g    3.317515  
       4B3u  100.000000  

    Beta Occupied:                                                        

       1Ag   -10.195902     1B1u  -10.195238     2Ag    -0.778074  
       2B1u   -0.571875     1B2u   -0.477795     3Ag    -0.433368  
       1B3g   -0.359692     1B3u   -0.297187  

    Beta Virtual:                                                         

       1B2g   -0.000280     4Ag     0.084022     2B2u    0.098657  
       3B1u    0.116149     2B3g    0.183787     4B1u    0.321269  
       5Ag     0.379953     3B2u    0.423585     6Ag     0.441189  
       2B3u    0.474895     5B1u    0.545293     2B2g    0.567857  
       7Ag     0.652096     4B2u    0.668329     6B1u    0.672113  
       3B3g    0.683633     7B1u    0.793502     4B3g    1.037040  
       1B1g    1.171713     1Au     1.235490     3B3u    1.254928  
       5B3g    1.582003     8Ag     1.623405     5B2u    1.627601  
       3B2g    1.699762     8B1u    1.738054     6B2u    1.757328  
       9Ag     1.803675     4B3u    1.913353     2B1g    2.057580  
       9B1u    2.156643     6B3g    2.229737     2Au     2.374017  
      10Ag     2.374284     4B2g    2.464337    11Ag     2.688380  
       7B2u    2.780907    10B1u    2.809650    11B1u    3.052912  
       7B3g    3.317933  

    Final Occupation by Irrep:
             Ag   B1g   B2g   B3g    Au   B1u   B2u   B3u 
    DOCC [     3,    0,    0,    1,    0,    2,    1,    0 ]
    SOCC [     0,    0,    1,    0,    0,    0,    0,    1 ]

  Energy converged.

  @DF-UKS Final Energy:   -78.31249755114982

   => Energetics <=

    Nuclear Repulsion Energy =             33.2980976622856915
    One-Electron Energy =                -169.6907455349139866
    Two-Electron Energy =                  68.0173053941224737
    DFT Exchange-Correlation Energy =      -9.9371550726439963
    Empirical Dispersion Energy =           0.0000000000000000
    PCM Polarization Energy =               0.0000000000000000
    EFP Energy =                            0.0000000000000000
    Total Energy =                        -78.3124975511498178

    Alert: EFP and PCM quantities not currently incorporated into SCF psivars.

Properties will be evaluated at   0.000000,   0.000000,   0.000000 Bohr
  ==> Properties <==


Properties computed using the SCF density matrix

  Nuclear Dipole Moment: (a.u.)
     X:     0.0000      Y:     0.0000      Z:     0.0000

  Electronic Dipole Moment: (a.u.)
     X:     0.0000      Y:     0.0000      Z:     0.0000

  Dipole Moment: (a.u.)
     X:     0.0000      Y:     0.0000      Z:     0.0000     Total:     0.0000

  Dipole Moment: (Debye)
     X:     0.0000      Y:     0.0000      Z:     0.0000     Total:     0.0000



  Analysis of the hole/particle MOs in terms of the ground state DFT MOs
  Hole:          0B3u =  100.0% 1B3u
  Particle:      0B2g =  100.0% 1B2g


  Computing transition dipole moments
  2 determinants stored
 det U = -1.000000, det V = -1.000000
 det U = -1.000000, det V = -1.000000
  Corresponding orbitals:
  A(alpha):  (7, 0)
  B(alpha):  (2, 0)
  s(alpha):  0.000000e+00
  A(beta):  
  B(beta):  
  s(beta):  
  Stilde = 0.999087


Properties will be evaluated at   0.000000,   0.000000,   0.000000 Bohr
  ==> Transition dipole moment computed with OCDFT <==


Properties computed using the OCDFT TRANSITION density matrix

  Transition Dipole Moment: (a.u.)
     X:     0.0000      Y:     0.0000      Z:    -2.6483     Total:     2.6483

  Transition Dipole Moment: (Debye)
     X:     0.0000      Y:     0.0000      Z:    -6.7313     Total:     6.7313


  Dipole moments from AO integrals: -0.0000 0.0000 -1.3900
    ==> Restricted Sum from Atomic Population Analysis of NTO contributions <==

   ===================================================================================
   Atomic Transition     PR%       |mu|%       |mu|     mu(x)      mu(y)      mu(z)  
   ===================================================================================
     C p --->  C p      99.51%      92.79   1.437673   0.000000   0.000000  -1.338859
     C d --->  C p       0.15%       1.40   0.021674   0.000000   0.000000   0.017465
     C p --->  H p       0.13%       2.09   0.032398   0.000000   0.000000  -0.027486
     H p --->  C p       0.13%       2.31   0.035778   0.000000   0.000000  -0.023315
     C p --->  C d       0.08%       1.08   0.016743   0.000000   0.000000  -0.016743
     C d --->  H p       0.00%       0.04   0.000680   0.000000   0.000000   0.000639
     C d --->  C d       0.00%       0.07   0.001056   0.000000   0.000000   0.001056
     H p --->  C d       0.00%       0.03   0.000500   0.000000   0.000000  -0.000470
     H p --->  H p       0.00%       0.19   0.002875   0.000000   0.000000  -0.002305
   ===================================================================================


         ==> Mulliken Population Analysis of the Transition Dipole Moment <==

   =================================================================================
    Initial     Final     mu(x)      mu(y)      mu(z)       |mu|     PRnto     CT
   ---------------------------------------------------------------------------------
    6  C p    6  C p   0.000000   0.000000  -0.694133   0.694133     24.88%  0.140786
    6  C p    5  C p   0.000000   0.000000   0.024704   0.024704     24.88%  0.140786
    5  C p    6  C p   0.000000   0.000000   0.024704   0.024704     24.88%  0.140786
    5  C p    5  C p   0.000000   0.000000  -0.694133   0.694133     24.88%  0.140786
    5  C d    6  C p   0.000000   0.000000  -0.001052   0.001052      0.04%  0.000209
    6  C d    6  C p   0.000000   0.000000   0.009785   0.009785      0.04%  0.000209
    6  C d    5  C p   0.000000   0.000000  -0.001052   0.001052      0.04%  0.000209
    5  C d    5  C p   0.000000   0.000000   0.009785   0.009785      0.04%  0.000209
    6  C p    6  C d   0.000000   0.000000  -0.007669   0.007669      0.02%  0.000118
    6  C p    5  C d   0.000000   0.000000  -0.000702   0.000702      0.02%  0.000118
    5  C p    6  C d   0.000000   0.000000  -0.000702   0.000702      0.02%  0.000118
    5  C p    5  C d   0.000000   0.000000  -0.007669   0.007669      0.02%  0.000118
    6  C p    4  H p   0.000000  -0.003768  -0.006280   0.007324      0.02%  0.000094
    6  C p    3  H p  -0.000000   0.003768  -0.006280   0.007324      0.02%  0.000094
    6  C p    2  H p  -0.000000   0.000502  -0.000592   0.000776      0.02%  0.000094
    6  C p    1  H p   0.000000  -0.000502  -0.000592   0.000776      0.02%  0.000094
    5  C p    4  H p   0.000000  -0.000502  -0.000592   0.000776      0.02%  0.000094
    5  C p    3  H p  -0.000000   0.000502  -0.000592   0.000776      0.02%  0.000094
    5  C p    2  H p  -0.000000   0.003768  -0.006280   0.007324      0.02%  0.000094
    5  C p    1  H p   0.000000  -0.003768  -0.006280   0.007324      0.02%  0.000094
    4  H p    6  C p   0.000000  -0.004178  -0.006659   0.007861      0.02%  0.000091
    4  H p    5  C p  -0.000000   0.000697   0.000830   0.001084      0.02%  0.000091
    3  H p    6  C p  -0.000000   0.004178  -0.006659   0.007861      0.02%  0.000091
    3  H p    5  C p   0.000000  -0.000697   0.000830   0.001084      0.02%  0.000091
    2  H p    6  C p   0.000000  -0.000697   0.000830   0.001084      0.02%  0.000091
    2  H p    5  C p  -0.000000   0.004178  -0.006659   0.007861      0.02%  0.000091
    1  H p    6  C p  -0.000000   0.000697   0.000830   0.001084      0.02%  0.000091
    1  H p    5  C p   0.000000  -0.004178  -0.006659   0.007861      0.02%  0.000091
    6  C d    6  C d   0.000000   0.000000   0.000528   0.000528      0.00%  0.000000
    5  C d    5  C d   0.000000   0.000000   0.000528   0.000528      0.00%  0.000000
    6  C d    4  H p  -0.000000   0.000059   0.000160   0.000170      0.00%  0.000000
    6  C d    3  H p   0.000000  -0.000059   0.000160   0.000170      0.00%  0.000000
    5  C d    2  H p   0.000000  -0.000059   0.000160   0.000170      0.00%  0.000000
    5  C d    1  H p  -0.000000   0.000059   0.000160   0.000170      0.00%  0.000000
    4  H p    6  C d   0.000000  -0.000043  -0.000117   0.000125      0.00%  0.000000
    3  H p    6  C d  -0.000000   0.000043  -0.000117   0.000125      0.00%  0.000000
    2  H p    5  C d  -0.000000   0.000043  -0.000117   0.000125      0.00%  0.000000
    1  H p    5  C d   0.000000  -0.000043  -0.000117   0.000125      0.00%  0.000000
    4  H p    4  H p   0.000000  -0.000430  -0.000576   0.000719      0.00%  0.000000
    3  H p    3  H p  -0.000000   0.000430  -0.000576   0.000719      0.00%  0.000000
    2  H p    2  H p  -0.000000   0.000430  -0.000576   0.000719      0.00%  0.000000
    1  H p    1  H p   0.000000  -0.000430  -0.000576   0.000719      0.00%  0.000000
  ==================================================================================

  Excited mixed state   : excitation energy =  0.218872 Eh =   5.9558 eV =   48036.8 cm**-1 

  ==> Spin-adaptation correction using S+ <==

  Original occupation numbers:
	NA   [     3,    0,    1,    1,    0,    2,    1,    0 ]
	NB   [     3,    0,    0,    1,    0,    2,    1,    1 ]

  Final occupation numbers:
	NA   [     3,    0,    1,    1,    0,    2,    1,    1 ]
	NB   [     3,    0,    0,    1,    0,    2,    1,    0 ]

  Triplet state energy (S+) 1-B1u        -78.363363976 Eh 

  Singlet state energy (S+) 1-B1u        -78.261631126 Eh 

  Excited triplet state 1-B1u : excitation energy (S+) =  0.168005 Eh =   4.5717 eV =   36872.9 cm**-1 
  Excited singlet state 1-B1u : excitation energy (S+) =  0.269738 Eh =   7.3400 eV =   59200.7 cm**-1 

  Transition Dipole Moment = (0.000000,0.000000,-2.648297) 
    @Spin Contamination Metric:   2.000308805E+00
   @S^2 Expected:                0.000000000E+00
   @S^2 Observed:                2.000308805E+00
   @S   Expected:                0.000000000E+00
   @S   Observed:                0.000000000E+00


  Saved number of holes per irrep (n = 8): 0  0  0  0  0  0  0  0  

  Saving occupied orbitals to File 180.

  UHF NO Occupations:
  HONO-2 :    2B1u 1.9999624
  HONO-1 :    3 Ag 1.9999213
  HONO-0 :    1B3u 1.0000000
  LUNO+0 :    1B2g 1.0000000
  LUNO+1 :    4 Ag 0.0000787
  LUNO+2 :    3B1u 0.0000376
  LUNO+3 :    5 Ag 0.0000235


       ==> OCDFT Excited State Information <==

    ----------------------------------------------------------------------------------------------------------
      State       Energy (Eh)    Omega (eV)   Osc. Str.     Osc. Str. (x)  Osc. Str. (y)  Osc. Str. (z) 
    ----------------------------------------------------------------------------------------------------------
     _OCDFT-0     -78.5313695      0.0000     0.00000000     0.00000000     0.00000000     0.00000000 (Ground State)
     @OCDFT-0     -78.3124976      7.3400     1.26120289     0.00000000     0.00000000     1.26120289
    -----------------------------------------------------------------------------------------------------------
	DFT energy........................................................PASSED
	OCDFT singlet energy..............................................PASSED
	OCDFT triplet energy..............................................PASSED

*** PSI4 exiting successfully. Buy a developer a beer!
