    -----------------------------------------------------------------------
          Psi4: An Open-Source Ab Initio Electronic Structure Package
                              Psi4 0.2.258 Driver

                          Git: Rev {master} c523548 dirty

    J. M. Turney, A. C. Simmonett, R. M. Parrish, E. G. Hohenstein,
    F. A. Evangelista, J. T. Fermann, B. J. Mintz, L. A. Burns, J. J. Wilke,
    M. L. Abrams, N. J. Russ, M. L. Leininger, C. L. Janssen, E. T. Seidl,
    W. D. Allen, H. F. Schaefer, R. A. King, E. F. Valeev, C. D. Sherrill,
    and T. D. Crawford, WIREs Comput. Mol. Sci. 2, 556-565 (2012)
    (doi: 10.1002/wcms.93)

                         Additional Contributions by
    A. E. DePrince, M. Saitow, U. Bozkaya, A. Yu. Sokolov
    -----------------------------------------------------------------------


    Psi4 started on: Fri Sep  4 12:04:33 2015

    Process ID:   5964
    PSI4DATADIR: /home/wallace/Source/psi4public/lib
    Memory level set to 256.000 MB

  ==> Input File <==

--------------------------------------------------------------------------
#! OCDFT CPH algorithm test, B3LYP computation on ethene

import cdft

refdft                = -78.62361950040257 #TEST
refocdft_singlet_spin = -78.361575900 #TEST
refocdft_triplet_spin = -78.455779491 #TEST

molecule {
0 1
H   0.000000   0.923274   1.238289
H   0.000000  -0.923274   1.238289
H   0.000000   0.923274  -1.238289
H   0.000000  -0.923274  -1.238289
C   0.000000   0.000000   0.668188
C   0.000000   0.000000  -0.668188
}

set {
  basis def2-TZVP
  df_basis_scf cc-pVTZ-JKFIT
  guess sad
  scf_type df
  dft_spherical_points 302
  dft_radial_points 75
  reference uks
  maxiter 200
  e_convergence 11 
  d_convergence 6
}

set cdft {
  roots_per_irrep [0,0,0,0,0,1,0,0]
  cdft_exc_method chp-fb
}

set dft_functional B3LYP

energy('ocdft')

compare_values(refdft, get_variable("DFT ENERGY"),8, "DFT energy") #TEST
compare_values(refocdft_singlet_spin, get_variable("OCDFT SINGLET ENERGY"),8, "OCDFT singlet energy") #TEST
compare_values(refocdft_triplet_spin, get_variable("OCDFT TRIPLET ENERGY"),8, "OCDFT triplet energy") #TEST
--------------------------------------------------------------------------
/home/wallace/Source/cdft/cdft.so loaded.
Reading options from the CDFT block
Calling plugin cdft.so.

  ==> Orthogonality Constrained DFT <==

         ---------------------------------------------------------
                                   SCF
            by Justin Turney, Rob Parrish, and Andy Simmonett
                              UKS Reference
                        1 Threads,    256 MiB Core
         ---------------------------------------------------------

  ==> Geometry <==

    Molecular point group: d2h
    Full point group: D2h

    Geometry (in Angstrom), charge = 0, multiplicity = 1:

       Center              X                  Y                   Z       
    ------------   -----------------  -----------------  -----------------
           H         -0.000000000000     0.923274000000     1.238289000000
           H          0.000000000000    -0.923274000000     1.238289000000
           H         -0.000000000000     0.923274000000    -1.238289000000
           H          0.000000000000    -0.923274000000    -1.238289000000
           C          0.000000000000     0.000000000000     0.668188000000
           C          0.000000000000     0.000000000000    -0.668188000000

  Running in d2h symmetry.

  Rotational constants: A =      4.90558  B =      0.99768  C =      0.82907 [cm^-1]
  Rotational constants: A = 147065.51639  B =  29909.67957  C =  24854.79644 [MHz]
  Nuclear repulsion =   33.298097662285691

  Charge       = 0
  Multiplicity = 1
  Electrons    = 16
  Nalpha       = 8
  Nbeta        = 8

  ==> Algorithm <==

  SCF Algorithm Type is DF.
  DIIS enabled.
  MOM disabled.
  Fractional occupation disabled.
  Guess Type is SAD.
  Energy threshold   = 1.00e-11
  Density threshold  = 1.00e-06
  Integral threshold = 1.00e-12

  ==> Primary Basis <==

  Basis Set: DEF2-TZVP
    Number of shells: 38
    Number of basis function: 86
    Number of Cartesian functions: 96
    Spherical Harmonics?: true
    Max angular momentum: 3

  ==> DFT Potential <==

   => B3LYP Composite Functional <= 

    B3LYP Hybrid-GGA Exchange-Correlation Functional

    P.J. Stephens et. al., J. Phys. Chem., 98, 11623-11627, 1994

    Points   =           5000
    Deriv    =              1
    GGA      =           TRUE
    Meta     =          FALSE

    X_LRC        =          FALSE
    X_Hybrid     =           TRUE
    X_Alpha      =   2.000000E-01
    X_Omega      =   0.000000E+00
    C_LRC        =          FALSE
    C_Hybrid     =          FALSE
    C_Alpha      =   0.000000E+00
    C_Omega      =   0.000000E+00

   => Exchange Functionals <=

    0.8000    B3_X
    0.2000      HF 

   => Correlation Functionals <=

    0.1900 VWN3RPA_C
    0.8100   LYP_C

   => Molecular Quadrature <=

    Radial Scheme    =       TREUTLER
    Pruning Scheme   =           FLAT
    Nuclear Scheme   =       TREUTLER

    BS radius alpha  =              1
    Pruning alpha    =              1
    Radial Points    =             75
    Spherical Points =            302
    Total Points     =         134196
    Total Blocks     =            124
    Max Points       =           4774
    Max Functions    =             86


  ==> Unrestricted Orthogonality Constrained DFT (OCDFT) <==

  ==> Pre-Iterations <==

   -------------------------------------------------------
    Irrep   Nso     Nmo     Nalpha   Nbeta   Ndocc  Nsocc
   -------------------------------------------------------
     Ag        19      19       0       0       0       0
     B1g        4       4       0       0       0       0
     B2g        8       8       0       0       0       0
     B3g       12      12       0       0       0       0
     Au         4       4       0       0       0       0
     B1u       19      19       0       0       0       0
     B2u       12      12       0       0       0       0
     B3u        8       8       0       0       0       0
   -------------------------------------------------------
    Total      86      86       8       8       8       0
   -------------------------------------------------------

 OEINTS: Overlap, kinetic, potential, dipole, and quadrupole integrals
         stored in file 35.

  ==> Integral Setup <==

  ==> DFJK: Density-Fitted J/K Matrices <==

    J tasked:                  Yes
    K tasked:                  Yes
    wK tasked:                  No
    OpenMP threads:              1
    Integrals threads:           1
    Memory (MB):               183
    Algorithm:                Core
    Integral Cache:           NONE
    Schwarz Cutoff:          1E-12
    Fitting Condition:       1E-12

   => Auxiliary Basis Set <=

  Basis Set: CC-PVTZ-JKFIT
    Number of shells: 90
    Number of basis function: 278
    Number of Cartesian functions: 332
    Spherical Harmonics?: true
    Max angular momentum: 4

  Minimum eigenvalue in the overlap matrix is 2.3390882456E-04.
  Using Symmetric Orthogonalization.
  SCF Guess: Superposition of Atomic Densities via on-the-fly atomic UHF.

  ==> Iterations <==

                           Total Energy        Delta E     RMS |[F,P]|

   @DF-UKS iter   0:   -78.77073106611597   -7.87707e+01   2.52808e-02 
   @DF-UKS iter   1:   -78.58473913959163    1.85992e-01   7.30263e-03 
   @DF-UKS iter   2:   -78.58128849462285    3.45064e-03   4.09412e-03 DIIS
   @DF-UKS iter   3:   -78.62350712577418   -4.22186e-02   2.13348e-04 DIIS
   @DF-UKS iter   4:   -78.62361876509721   -1.11639e-04   2.58748e-05 DIIS
   @DF-UKS iter   5:   -78.62361946861456   -7.03517e-07   4.12483e-06 DIIS
   @DF-UKS iter   6:   -78.62361950018732   -3.15728e-08   5.07368e-07 DIIS
   @DF-UKS iter   7:   -78.62361950039909   -2.11770e-10   4.03839e-08 DIIS
   @DF-UKS iter   8:   -78.62361950040257   -3.48166e-12   4.72099e-09 DIIS

  ==> Post-Iterations <==

   @Spin Contamination Metric:   3.463895837E-14
   @S^2 Expected:                0.000000000E+00
   @S^2 Observed:                3.463895837E-14
   @S   Expected:                0.000000000E+00
   @S   Observed:                0.000000000E+00

    Orbital Energies (a.u.)
    -----------------------

    Alpha Occupied:                                                       

       1Ag   -10.175581     1B1u  -10.174728     2Ag    -0.763571  
       2B1u   -0.584914     1B2u   -0.473520     3Ag    -0.425915  
       1B3g   -0.361438     1B3u   -0.279671  

    Alpha Virtual:                                                        

       1B2g   -0.007490     4Ag     0.064306     2B2u    0.087618  
       3B1u    0.088199     2B3g    0.148602     5Ag     0.188569  
       6Ag     0.208847     2B3u    0.216734     4B1u    0.217499  
       3B2u    0.265689     2B2g    0.307325     5B1u    0.338369  
       4B2u    0.416852     6B1u    0.454583     7Ag     0.459051  
       3B3g    0.487923     1B1g    0.542837     7B1u    0.559499  
       4B3g    0.621886     3B3u    0.718802     1Au     0.771322  
       8Ag     0.795891     9Ag     0.887856     5B2u    0.953366  
       8B1u    1.052405     5B3g    1.083569     3B2g    1.102826  
       9B1u    1.230424    10Ag     1.310244     4B3u    1.408367  
       6B2u    1.519883    10B1u    1.530393     4B2g    1.586319  
       6B3g    1.587352     7B2u    1.695621     2B1g    1.721233  
      11B1u    1.732771    11Ag     1.778830     5B3u    1.806050  
       5B2g    1.829176    12Ag     2.005527     2Au     2.186220  
       7B3g    2.219712     8B2u    2.290454    13Ag     2.348684  
      12B1u    2.396966     9B2u    2.408391     6B3u    2.502500  
      14Ag     2.589733     8B3g    2.599805    13B1u    2.612616  
       3B1g    2.757797    15Ag     2.815941    14B1u    2.909370  
       7B3u    2.942828     9B3g    2.979131     3Au     3.026544  
       6B2g    3.082574    10B2u    3.121521     4B1g    3.146723  
      16Ag     3.159321    10B3g    3.291805     7B2g    3.364990  
      15B1u    3.368312     8B3u    3.403168    11B2u    3.452646  
      16B1u    3.618825     4Au     3.697702    17Ag     4.063429  
      11B3g    4.097764    12B2u    4.190244     8B2g    4.332079  
      18Ag     4.374623    17B1u    4.561386    12B3g    4.596877  
      18B1u    4.950993    19Ag    21.914644    19B1u   22.514306  

    Beta Occupied:                                                        

       1Ag   -10.175581     1B1u  -10.174728     2Ag    -0.763571  
       2B1u   -0.584914     1B2u   -0.473520     3Ag    -0.425915  
       1B3g   -0.361438     1B3u   -0.279671  

    Beta Virtual:                                                         

       1B2g   -0.007490     4Ag     0.064306     2B2u    0.087618  
       3B1u    0.088199     2B3g    0.148602     5Ag     0.188569  
       6Ag     0.208847     2B3u    0.216734     4B1u    0.217499  
       3B2u    0.265689     2B2g    0.307325     5B1u    0.338369  
       4B2u    0.416852     6B1u    0.454583     7Ag     0.459051  
       3B3g    0.487923     1B1g    0.542837     7B1u    0.559499  
       4B3g    0.621886     3B3u    0.718802     1Au     0.771322  
       8Ag     0.795891     9Ag     0.887856     5B2u    0.953366  
       8B1u    1.052405     5B3g    1.083569     3B2g    1.102826  
       9B1u    1.230424    10Ag     1.310244     4B3u    1.408367  
       6B2u    1.519883    10B1u    1.530393     4B2g    1.586319  
       6B3g    1.587352     7B2u    1.695621     2B1g    1.721233  
      11B1u    1.732771    11Ag     1.778830     5B3u    1.806050  
       5B2g    1.829176    12Ag     2.005527     2Au     2.186220  
       7B3g    2.219712     8B2u    2.290454    13Ag     2.348684  
      12B1u    2.396966     9B2u    2.408391     6B3u    2.502500  
      14Ag     2.589733     8B3g    2.599805    13B1u    2.612616  
       3B1g    2.757797    15Ag     2.815941    14B1u    2.909370  
       7B3u    2.942828     9B3g    2.979131     3Au     3.026544  
       6B2g    3.082574    10B2u    3.121521     4B1g    3.146723  
      16Ag     3.159321    10B3g    3.291805     7B2g    3.364990  
      15B1u    3.368312     8B3u    3.403168    11B2u    3.452646  
      16B1u    3.618825     4Au     3.697702    17Ag     4.063429  
      11B3g    4.097764    12B2u    4.190244     8B2g    4.332079  
      18Ag     4.374623    17B1u    4.561386    12B3g    4.596877  
      18B1u    4.950993    19Ag    21.914644    19B1u   22.514306  

    Final Occupation by Irrep:
             Ag   B1g   B2g   B3g    Au   B1u   B2u   B3u 
    DOCC [     3,    0,    0,    1,    0,    2,    1,    1 ]
    SOCC [     0,    0,    0,    0,    0,    0,    0,    0 ]

  Energy converged.

  @DF-UKS Final Energy:   -78.62361950040257

   => Energetics <=

    Nuclear Repulsion Energy =              0.0000000000000000
    One-Electron Energy =                   0.0000000000000000
    Two-Electron Energy =                   0.0000000000000000
    DFT Exchange-Correlation Energy =       0.0000000000000000
    Empirical Dispersion Energy =           0.0000000000000000
    PCM Polarization Energy =               0.0000000000000000
    EFP Energy =                            0.0000000000000000
    Total Energy =                          0.0000000000000000

    Alert: EFP and PCM quantities not currently incorporated into SCF psivars.

Properties will be evaluated at   0.000000,   0.000000,   0.000000 Bohr
  ==> Properties <==


Properties computed using the SCF density matrix

  Nuclear Dipole Moment: (a.u.)
     X:     0.0000      Y:     0.0000      Z:     0.0000

  Electronic Dipole Moment: (a.u.)
     X:     0.0000      Y:     0.0000      Z:     0.0000

  Dipole Moment: (a.u.)
     X:     0.0000      Y:     0.0000      Z:     0.0000     Total:     0.0000

  Dipole Moment: (Debye)
     X:     0.0000      Y:     0.0000      Z:     0.0000     Total:     0.0000


  Saving occupied orbitals to File 180.


  ==== Computing 1 state of symmetry 5 ====

         ---------------------------------------------------------
                                   SCF
            by Justin Turney, Rob Parrish, and Andy Simmonett
                              UKS Reference
                        1 Threads,    256 MiB Core
         ---------------------------------------------------------

  ==> Geometry <==

    Molecular point group: d2h
    Full point group: D2h

    Geometry (in Angstrom), charge = 0, multiplicity = 1:

       Center              X                  Y                   Z       
    ------------   -----------------  -----------------  -----------------
           H         -0.000000000000     0.923274000000     1.238289000000
           H          0.000000000000    -0.923274000000     1.238289000000
           H         -0.000000000000     0.923274000000    -1.238289000000
           H          0.000000000000    -0.923274000000    -1.238289000000
           C          0.000000000000     0.000000000000     0.668188000000
           C          0.000000000000     0.000000000000    -0.668188000000

  Running in d2h symmetry.

  Rotational constants: A =      4.90558  B =      0.99768  C =      0.82907 [cm^-1]
  Rotational constants: A = 147065.51639  B =  29909.67957  C =  24854.79644 [MHz]
  Nuclear repulsion =   33.298097662285691

  Charge       = 0
  Multiplicity = 1
  Electrons    = 16
  Nalpha       = 8
  Nbeta        = 8

  ==> Algorithm <==

  SCF Algorithm Type is DF.
  DIIS enabled.
  MOM disabled.
  Fractional occupation disabled.
  Guess Type is SAD.
  Energy threshold   = 1.00e-11
  Density threshold  = 1.00e-06
  Integral threshold = 1.00e-12

  ==> Primary Basis <==

  Basis Set: DEF2-TZVP
    Number of shells: 38
    Number of basis function: 86
    Number of Cartesian functions: 96
    Spherical Harmonics?: true
    Max angular momentum: 3

  ==> DFT Potential <==

   => B3LYP Composite Functional <= 

    B3LYP Hybrid-GGA Exchange-Correlation Functional

    P.J. Stephens et. al., J. Phys. Chem., 98, 11623-11627, 1994

    Points   =           5000
    Deriv    =              1
    GGA      =           TRUE
    Meta     =          FALSE

    X_LRC        =          FALSE
    X_Hybrid     =           TRUE
    X_Alpha      =   2.000000E-01
    X_Omega      =   0.000000E+00
    C_LRC        =          FALSE
    C_Hybrid     =          FALSE
    C_Alpha      =   0.000000E+00
    C_Omega      =   0.000000E+00

   => Exchange Functionals <=

    0.8000    B3_X
    0.2000      HF 

   => Correlation Functionals <=

    0.1900 VWN3RPA_C
    0.8100   LYP_C

   => Molecular Quadrature <=

    Radial Scheme    =       TREUTLER
    Pruning Scheme   =           FLAT
    Nuclear Scheme   =       TREUTLER

    BS radius alpha  =              1
    Pruning alpha    =              1
    Radial Points    =             75
    Spherical Points =            302
    Total Points     =         134196
    Total Blocks     =            124
    Max Points       =           4774
    Max Functions    =             86


  ==> Unrestricted Orthogonality Constrained DFT (OCDFT) <==

  Saving the reference orbitals for an excited state computation

  Projecting out only holes.

    Saved number of holes per irrep (n = 8): 0  0  0  0  0  0  0  0  

    Saved number of particles per irrep (n = 8): 0  0  0  0  0  0  0  0  

    Saved number of holes per irrep (n = 8): 0  0  0  0  0  0  0  0  
  ==> Pre-Iterations <==

   -------------------------------------------------------
    Irrep   Nso     Nmo     Nalpha   Nbeta   Ndocc  Nsocc
   -------------------------------------------------------
     Ag        19      19       0       0       0       0
     B1g        4       4       0       0       0       0
     B2g        8       8       0       0       0       0
     B3g       12      12       0       0       0       0
     Au         4       4       0       0       0       0
     B1u       19      19       0       0       0       0
     B2u       12      12       0       0       0       0
     B3u        8       8       0       0       0       0
   -------------------------------------------------------
    Total      86      86       8       8       8       0
   -------------------------------------------------------

 OEINTS: Overlap, kinetic, potential, dipole, and quadrupole integrals
         stored in file 35.

  ==> Integral Setup <==

  ==> DFJK: Density-Fitted J/K Matrices <==

    J tasked:                  Yes
    K tasked:                  Yes
    wK tasked:                  No
    OpenMP threads:              1
    Integrals threads:           1
    Memory (MB):               183
    Algorithm:                Core
    Integral Cache:           NONE
    Schwarz Cutoff:          1E-12
    Fitting Condition:       1E-12

   => Auxiliary Basis Set <=

  Basis Set: CC-PVTZ-JKFIT
    Number of shells: 90
    Number of basis function: 278
    Number of Cartesian functions: 332
    Spherical Harmonics?: true
    Max angular momentum: 4

  Minimum eigenvalue in the overlap matrix is 2.3390882456E-04.
  Using Symmetric Orthogonalization.
  Projecting out 0 previous holes

  Ground state symmetry: Ag
  Excited state symmetry: B1u

  Lowest energy excitations:
  --------------------------------------
    N   Occupied     Virtual     E(eV)  
  --------------------------------------
    1      1B3u  ->    1B2g       7.406
    2      1B3g  ->    2B2u      12.219
    3      3Ag   ->    3B1u      13.990
    4      1B3u  ->    2B2g      15.973
    5      1B2u  ->    2B3g      16.929
    6      1B3g  ->    3B2u      17.065
    7      3Ag   ->    4B1u      17.508
    8      2B1u  ->    4Ag       17.666
    9      3Ag   ->    5B1u      20.797
   10      2B1u  ->    5Ag       21.048
  --------------------------------------

  HOLES:        1B3u (-0.279671)
  PARTICLES:    1B2g (-0.007490)


  Frozen beta algorithm

  Allocated beta matrices!!!
  ==> Iterations <==

                           Total Energy        Delta E     RMS |[F,P]|

  Projecting out 0 previous holes

  HOLES:        1B3u (-0.257167)
  PARTICLES:    1B2g (-0.094523)


  Frozen beta algorithm
   @DF-UKS iter   1:   -78.40542534802876   -2.70513e+01   3.51361e-03 
  Projecting out 0 previous holes

  HOLES:        1B3u (-0.240178)
  PARTICLES:    1B2g (-0.082304)


  Frozen beta algorithm
   @DF-UKS iter   2:   -78.40814269275971   -2.71734e-03   6.75568e-04 DIIS
  Projecting out 0 previous holes

  HOLES:        1B3u (-0.238644)
  PARTICLES:    1B2g (-0.081700)


  Frozen beta algorithm
   @DF-UKS iter   3:   -78.40867195418872   -5.29261e-04   3.82746e-05 DIIS
  Projecting out 0 previous holes

  HOLES:        1B3u (-0.238307)
  PARTICLES:    1B2g (-0.081516)


  Frozen beta algorithm
   @DF-UKS iter   4:   -78.40867750487079   -5.55068e-06   9.03190e-06 DIIS
  Projecting out 0 previous holes

  HOLES:        1B3u (-0.238297)
  PARTICLES:    1B2g (-0.081515)


  Frozen beta algorithm
   @DF-UKS iter   5:   -78.40867769473192   -1.89861e-07   3.22636e-06 DIIS
  Projecting out 0 previous holes

  HOLES:        1B3u (-0.238312)
  PARTICLES:    1B2g (-0.081521)


  Frozen beta algorithm
   @DF-UKS iter   6:   -78.40867769518414   -4.52218e-10   1.96314e-06 DIIS
  Projecting out 0 previous holes

  HOLES:        1B3u (-0.238312)
  PARTICLES:    1B2g (-0.081520)


  Frozen beta algorithm
   @DF-UKS iter   7:   -78.40867769471319    4.70948e-10   1.79174e-06 DIIS
  Projecting out 0 previous holes

  HOLES:        1B3u (-0.238315)
  PARTICLES:    1B2g (-0.081523)


  Frozen beta algorithm
   @DF-UKS iter   8:   -78.40867769540037   -6.87180e-10   2.03879e-07 DIIS
  Projecting out 0 previous holes

  HOLES:        1B3u (-0.238315)
  PARTICLES:    1B2g (-0.081524)


  Frozen beta algorithm
   @DF-UKS iter   9:   -78.40867769538757    1.28040e-11   4.64055e-07 DIIS
  Projecting out 0 previous holes

  HOLES:        1B3u (-0.238314)
  PARTICLES:    1B2g (-0.081522)


  Frozen beta algorithm
   @DF-UKS iter  10:   -78.40867769526969    1.17879e-10   2.43604e-07 DIIS
  Projecting out 0 previous holes

  HOLES:        1B3u (-0.238313)
  PARTICLES:    1B2g (-0.081522)


  Frozen beta algorithm
   @DF-UKS iter  11:   -78.40867769516365    1.06041e-10   1.15860e-07 DIIS
  Projecting out 0 previous holes

  HOLES:        1B3u (-0.238312)
  PARTICLES:    1B2g (-0.081521)


  Frozen beta algorithm
   @DF-UKS iter  12:   -78.40867769518778   -2.41300e-11   3.84257e-07 DIIS
  Projecting out 0 previous holes

  HOLES:        1B3u (-0.238307)
  PARTICLES:    1B2g (-0.081518)


  Frozen beta algorithm
   @DF-UKS iter  13:   -78.40867769497761    2.10164e-10   3.66634e-07 DIIS
  Projecting out 0 previous holes

  HOLES:        1B3u (-0.238306)
  PARTICLES:    1B2g (-0.081518)


  Frozen beta algorithm
   @DF-UKS iter  14:   -78.40867769489759    8.00213e-11   6.03515e-07 DIIS
  Projecting out 0 previous holes

  HOLES:        1B3u (-0.238309)
  PARTICLES:    1B2g (-0.081519)


  Frozen beta algorithm
   @DF-UKS iter  15:   -78.40867769440035    4.97238e-10   3.60503e-07 DIIS
  Projecting out 0 previous holes

  HOLES:        1B3u (-0.238307)
  PARTICLES:    1B2g (-0.081519)


  Frozen beta algorithm
   @DF-UKS iter  16:   -78.40867769424507    1.55282e-10   5.23784e-07 DIIS
  Projecting out 0 previous holes

  HOLES:        1B3u (-0.238312)
  PARTICLES:    1B2g (-0.081522)


  Frozen beta algorithm
   @DF-UKS iter  17:   -78.40867769469865   -4.53582e-10   2.16111e-06 DIIS
  Projecting out 0 previous holes

  HOLES:        1B3u (-0.238309)
  PARTICLES:    1B2g (-0.081517)


  Frozen beta algorithm
   @DF-UKS iter  18:   -78.40867769554140   -8.42746e-10   3.16179e-06 DIIS
  Projecting out 0 previous holes

  HOLES:        1B3u (-0.238311)
  PARTICLES:    1B2g (-0.081518)


  Frozen beta algorithm
   @DF-UKS iter  19:   -78.40867769356824    1.97316e-09   1.23448e-06 DIIS
  Projecting out 0 previous holes

  HOLES:        1B3u (-0.238314)
  PARTICLES:    1B2g (-0.081521)


  Frozen beta algorithm
   @DF-UKS iter  20:   -78.40867769456547   -9.97233e-10   2.13775e-06 DIIS
  Projecting out 0 previous holes

  HOLES:        1B3u (-0.238310)
  PARTICLES:    1B2g (-0.081518)


  Frozen beta algorithm
   @DF-UKS iter  21:   -78.40867769544306   -8.77591e-10   2.37387e-06 DIIS
  Projecting out 0 previous holes

  HOLES:        1B3u (-0.238314)
  PARTICLES:    1B2g (-0.081520)


  Frozen beta algorithm
   @DF-UKS iter  22:   -78.40867769454447    8.98595e-10   4.32220e-07 DIIS
  Projecting out 0 previous holes

  HOLES:        1B3u (-0.238314)
  PARTICLES:    1B2g (-0.081520)


  Frozen beta algorithm
   @DF-UKS iter  23:   -78.40867769475129   -2.06825e-10   1.80308e-07 DIIS
  Projecting out 0 previous holes

  HOLES:        1B3u (-0.238310)
  PARTICLES:    1B2g (-0.081521)


  Frozen beta algorithm
   @DF-UKS iter  24:   -78.40867769490607   -1.54785e-10   1.41636e-06 DIIS
  Projecting out 0 previous holes

  HOLES:        1B3u (-0.238313)
  PARTICLES:    1B2g (-0.081520)


  Frozen beta algorithm
   @DF-UKS iter  25:   -78.40867769552341   -6.17334e-10   1.41051e-06 DIIS
  Projecting out 0 previous holes

  HOLES:        1B3u (-0.238303)
  PARTICLES:    1B2g (-0.081517)


  Frozen beta algorithm
   @DF-UKS iter  26:   -78.40867769490706    6.16353e-10   1.24064e-06 DIIS
  Projecting out 0 previous holes

  HOLES:        1B3u (-0.238310)
  PARTICLES:    1B2g (-0.081520)


  Frozen beta algorithm
   @DF-UKS iter  27:   -78.40867769506966   -1.62601e-10   4.15723e-07 DIIS
  Projecting out 0 previous holes

  HOLES:        1B3u (-0.238310)
  PARTICLES:    1B2g (-0.081519)


  Frozen beta algorithm
   @DF-UKS iter  28:   -78.40867769533661   -2.66951e-10   3.18715e-07 DIIS
  Projecting out 0 previous holes

  HOLES:        1B3u (-0.238313)
  PARTICLES:    1B2g (-0.081520)


  Frozen beta algorithm
   @DF-UKS iter  29:   -78.40867769517975    1.56859e-10   8.42968e-07 DIIS
  Projecting out 0 previous holes

  HOLES:        1B3u (-0.238313)
  PARTICLES:    1B2g (-0.081520)


  Frozen beta algorithm
   @DF-UKS iter  30:   -78.40867769471632    4.63430e-10   1.93950e-07 DIIS
  Projecting out 0 previous holes

  HOLES:        1B3u (-0.238313)
  PARTICLES:    1B2g (-0.081519)


  Frozen beta algorithm
   @DF-UKS iter  31:   -78.40867769487420   -1.57883e-10   2.34388e-07 DIIS
  Projecting out 0 previous holes

  HOLES:        1B3u (-0.238312)
  PARTICLES:    1B2g (-0.081519)


  Frozen beta algorithm
   @DF-UKS iter  32:   -78.40867769477236    1.01835e-10   6.30973e-07 DIIS
  Projecting out 0 previous holes

  HOLES:        1B3u (-0.238312)
  PARTICLES:    1B2g (-0.081519)


  Frozen beta algorithm
   @DF-UKS iter  33:   -78.40867769437472    3.97648e-10   3.20408e-07 DIIS
  Projecting out 0 previous holes

  HOLES:        1B3u (-0.238313)
  PARTICLES:    1B2g (-0.081521)


  Frozen beta algorithm
   @DF-UKS iter  34:   -78.40867769457641   -2.01695e-10   5.62252e-07 DIIS
  Projecting out 0 previous holes

  HOLES:        1B3u (-0.238313)
  PARTICLES:    1B2g (-0.081521)


  Frozen beta algorithm
   @DF-UKS iter  35:   -78.40867769477282   -1.96408e-10   8.41840e-07 DIIS
  Projecting out 0 previous holes

  HOLES:        1B3u (-0.238313)
  PARTICLES:    1B2g (-0.081521)


  Frozen beta algorithm
   @DF-UKS iter  36:   -78.40867769524063   -4.67807e-10   3.29843e-07 DIIS
  Projecting out 0 previous holes

  HOLES:        1B3u (-0.238313)
  PARTICLES:    1B2g (-0.081521)


  Frozen beta algorithm
   @DF-UKS iter  37:   -78.40867769537539   -1.34762e-10   2.69785e-07 DIIS
  Projecting out 0 previous holes

  HOLES:        1B3u (-0.238313)
  PARTICLES:    1B2g (-0.081520)


  Frozen beta algorithm
   @DF-UKS iter  38:   -78.40867769541497   -3.95772e-11   2.15563e-07 DIIS
  Projecting out 0 previous holes

  HOLES:        1B3u (-0.238314)
  PARTICLES:    1B2g (-0.081520)


  Frozen beta algorithm
   @DF-UKS iter  39:   -78.40867769531920    9.57669e-11   4.83376e-07 DIIS
  Projecting out 0 previous holes

  HOLES:        1B3u (-0.238313)
  PARTICLES:    1B2g (-0.081521)


  Frozen beta algorithm
   @DF-UKS iter  40:   -78.40867769517494    1.44254e-10   4.71231e-07 DIIS
  Projecting out 0 previous holes

  HOLES:        1B3u (-0.238313)
  PARTICLES:    1B2g (-0.081521)


  Frozen beta algorithm
   @DF-UKS iter  41:   -78.40867769536935   -1.94404e-10   2.66710e-07 DIIS
  Projecting out 0 previous holes

  HOLES:        1B3u (-0.238313)
  PARTICLES:    1B2g (-0.081520)


  Frozen beta algorithm
   @DF-UKS iter  42:   -78.40867769541575   -4.63984e-11   2.18016e-07 DIIS
  Projecting out 0 previous holes

  HOLES:        1B3u (-0.238314)
  PARTICLES:    1B2g (-0.081520)


  Frozen beta algorithm
   @DF-UKS iter  43:   -78.40867769532714    8.86047e-11   4.74216e-07 DIIS
  Projecting out 0 previous holes

  HOLES:        1B3u (-0.238313)
  PARTICLES:    1B2g (-0.081521)


  Frozen beta algorithm
   @DF-UKS iter  44:   -78.40867769517912    1.48020e-10   4.73185e-07 DIIS
  Projecting out 0 previous holes

  HOLES:        1B3u (-0.238313)
  PARTICLES:    1B2g (-0.081520)


  Frozen beta algorithm
   @DF-UKS iter  45:   -78.40867769538869   -2.09567e-10   2.46539e-07 DIIS
  Projecting out 0 previous holes

  HOLES:        1B3u (-0.238313)
  PARTICLES:    1B2g (-0.081520)


  Frozen beta algorithm
   @DF-UKS iter  46:   -78.40867769540739   -1.87015e-11   2.23106e-07 DIIS
  Projecting out 0 previous holes

  HOLES:        1B3u (-0.238314)
  PARTICLES:    1B2g (-0.081520)


  Frozen beta algorithm
   @DF-UKS iter  47:   -78.40867769527738    1.30015e-10   4.61885e-07 DIIS
  Projecting out 0 previous holes

  HOLES:        1B3u (-0.238313)
  PARTICLES:    1B2g (-0.081521)


  Frozen beta algorithm
   @DF-UKS iter  48:   -78.40867769516092    1.16458e-10   4.79640e-07 DIIS
  Projecting out 0 previous holes

  HOLES:        1B3u (-0.238313)
  PARTICLES:    1B2g (-0.081521)


  Frozen beta algorithm
   @DF-UKS iter  49:   -78.40867769530372   -1.42805e-10   3.05315e-07 DIIS
  Projecting out 0 previous holes

  HOLES:        1B3u (-0.238313)
  PARTICLES:    1B2g (-0.081520)


  Frozen beta algorithm
   @DF-UKS iter  50:   -78.40867769540095   -9.72307e-11   2.52871e-07 DIIS
  Projecting out 0 previous holes

  HOLES:        1B3u (-0.238313)
  PARTICLES:    1B2g (-0.081520)


  Frozen beta algorithm
   @DF-UKS iter  51:   -78.40867769539955    1.40687e-12   2.48550e-07 DIIS

  ==> Post-Iterations <==

   @Spin Contamination Metric:   1.001988487E+00
   @S^2 Expected:                0.000000000E+00
   @S^2 Observed:                1.001988487E+00
   @S   Expected:                0.000000000E+00
   @S   Observed:                0.000000000E+00

    Orbital Energies (a.u.)
    -----------------------

    Alpha Occupied:                                                       

       1B2g -100.000000     1Ag   -10.200349     1B1u  -10.199616  
       2Ag    -0.790881     2B1u   -0.596349     1B2u   -0.492378  
       3Ag    -0.446403     1B3g   -0.372964  

    Alpha Virtual:                                                        

       4Ag     0.058440     2B2u    0.079508     3B1u    0.085763  
       2B3g    0.145639     5Ag     0.182909     6Ag     0.202358  
       1B3u    0.206895     4B1u    0.214702     3B2u    0.257388  
       2B2g    0.286632     5B1u    0.319390     4B2u    0.404537  
       6B1u    0.445056     7Ag     0.452591     3B3g    0.476218  
       1B1g    0.526835     7B1u    0.543051     4B3g    0.609938  
       2B3u    0.703950     1Au     0.751718     8Ag     0.779708  
       9Ag     0.876039     5B2u    0.939499     8B1u    1.040179  
       5B3g    1.074903     3B2g    1.088792     9B1u    1.213158  
      10Ag     1.298969     3B3u    1.387048     6B2u    1.500283  
      10B1u    1.516278     4B2g    1.563573     6B3g    1.573569  
       7B2u    1.688366     2B1g    1.712301    11B1u    1.722155  
      11Ag     1.760233     4B3u    1.794820     5B2g    1.817381  
      12Ag     1.995945     2Au     2.176192     7B3g    2.204872  
       8B2u    2.272909    13Ag     2.339934    12B1u    2.385666  
       9B2u    2.390171     5B3u    2.469581    14Ag     2.571411  
       8B3g    2.590881    13B1u    2.603176     3B1g    2.726727  
      15Ag     2.790291    14B1u    2.897262     6B3u    2.919203  
       9B3g    2.967163     3Au     3.000593     6B2g    3.067411  
      10B2u    3.098538     4B1g    3.127207    16Ag     3.138701  
      10B3g    3.274888     7B2g    3.340621    15B1u    3.354632  
       7B3u    3.387013    11B2u    3.429711    16B1u    3.597209  
       4Au     3.675509    17Ag     4.040358    11B3g    4.085360  
      12B2u    4.178224     8B2g    4.304670    18Ag     4.353173  
      17B1u    4.528846    12B3g    4.568521    18B1u    4.932323  
      19Ag    21.890866    19B1u   22.489832     8B3u  100.000000  

    Beta Occupied:                                                        

       1B2u    0.000000     1B1u    0.000000     2B1u    0.000000  
       1B3g    0.000000     1B3u    0.000000     1Ag     0.000000  
       2Ag     0.000000     3Ag     0.000000  

    Beta Virtual:                                                         

       2B2u    0.000000     3B2u    0.000000     4B2u    0.000000  
       5B2u    0.000000     6B2u    0.000000     7B2u    0.000000  
       8B2u    0.000000     9B2u    0.000000    10B2u    0.000000  
      11B2u    0.000000    12B2u    0.000000     3B1u    0.000000  
       4B1u    0.000000     5B1u    0.000000     6B1u    0.000000  
       7B1u    0.000000     8B1u    0.000000     9B1u    0.000000  
      10B1u    0.000000    11B1u    0.000000    12B1u    0.000000  
      13B1u    0.000000    14B1u    0.000000    15B1u    0.000000  
      16B1u    0.000000    17B1u    0.000000    18B1u    0.000000  
      19B1u    0.000000     2B3g    0.000000     3B3g    0.000000  
       4B3g    0.000000     5B3g    0.000000     6B3g    0.000000  
       7B3g    0.000000     8B3g    0.000000     9B3g    0.000000  
      10B3g    0.000000    11B3g    0.000000    12B3g    0.000000  
       2B3u    0.000000     3B3u    0.000000     4B3u    0.000000  
       5B3u    0.000000     6B3u    0.000000     7B3u    0.000000  
       8B3u    0.000000     4Ag     0.000000     5Ag     0.000000  
       6Ag     0.000000     7Ag     0.000000     8Ag     0.000000  
       9Ag     0.000000    10Ag     0.000000    11Ag     0.000000  
      12Ag     0.000000    13Ag     0.000000    14Ag     0.000000  
      15Ag     0.000000    16Ag     0.000000    17Ag     0.000000  
      18Ag     0.000000    19Ag     0.000000     1B1g    0.000000  
       2B1g    0.000000     3B1g    0.000000     4B1g    0.000000  
       1Au     0.000000     2Au     0.000000     3Au     0.000000  
       4Au     0.000000     1B2g    0.000000     2B2g    0.000000  
       3B2g    0.000000     4B2g    0.000000     5B2g    0.000000  
       6B2g    0.000000     7B2g    0.000000     8B2g    0.000000  

    Final Occupation by Irrep:
             Ag   B1g   B2g   B3g    Au   B1u   B2u   B3u 
    DOCC [     3,    0,    0,    1,    0,    2,    1,    0 ]
    SOCC [     0,    0,    1,    0,    0,    0,    0,    1 ]

  Energy converged.

  @DF-UKS Final Energy:   -78.40867769539955

   => Energetics <=

    Nuclear Repulsion Energy =              0.0000000000000000
    One-Electron Energy =                   0.0000000000000000
    Two-Electron Energy =                   0.0000000000000000
    DFT Exchange-Correlation Energy =       0.0000000000000000
    Empirical Dispersion Energy =           0.0000000000000000
    PCM Polarization Energy =               0.0000000000000000
    EFP Energy =                            0.0000000000000000
    Total Energy =                          0.0000000000000000

    Alert: EFP and PCM quantities not currently incorporated into SCF psivars.

Properties will be evaluated at   0.000000,   0.000000,   0.000000 Bohr
  ==> Properties <==


Properties computed using the SCF density matrix

  Nuclear Dipole Moment: (a.u.)
     X:     0.0000      Y:     0.0000      Z:     0.0000

  Electronic Dipole Moment: (a.u.)
     X:     0.0000      Y:     0.0000      Z:     0.0000

  Dipole Moment: (a.u.)
     X:     0.0000      Y:     0.0000      Z:     0.0000     Total:     0.0000

  Dipole Moment: (Debye)
     X:     0.0000      Y:     0.0000      Z:     0.0000     Total:     0.0000



  Analysis of the hole/particle MOs in terms of the ground state DFT MOs
  Hole:          0B3u =  100.0% 1B3u
  Particle:      0B2g =  99.8% 1B2g


  Computing transition dipole moments
  2 determinants stored
 det U = -1.000000, det V = -1.000000
 det U = 1.000000, det V = 1.000000
  Corresponding orbitals:
  A(alpha):  (7, 0)
  B(alpha):  (2, 0)
  s(alpha):  0.000000e+00
  A(beta):  
  B(beta):  
  s(beta):  
  Stilde = 0.999006


Properties will be evaluated at   0.000000,   0.000000,   0.000000 Bohr
  ==> Transition dipole moment computed with OCDFT <==


Properties computed using the OCDFT TRANSITION density matrix

  Transition Dipole Moment: (a.u.)
     X:     0.0000      Y:     0.0000      Z:    -2.9190     Total:     2.9190

  Transition Dipole Moment: (Debye)
     X:     0.0000      Y:     0.0000      Z:    -7.4193     Total:     7.4193


  Dipole moments from AO integrals: 0.0000 0.0000 0.0000
  Mulliken Population Analysis of the Transition Dipole Moment:

  ===============================================================
   Initial     Final     mu(x)      mu(y)      mu(z)       |mu|
  ---------------------------------------------------------------
    3  H s    3  H s   0.000000  -0.263406   0.353278   0.440667
    1  H s    1  H s   0.000000  -0.263406  -0.353278   0.440667
    4  H s    4  H s  -0.000000   0.263406   0.353278   0.440667
    2  H s    2  H s  -0.000000   0.263406  -0.353278   0.440667
    4  H p    4  H p  -0.000000   0.085042   0.114057   0.142271
    3  H p    3  H p   0.000000  -0.085042   0.114057   0.142271
    2  H p    2  H p  -0.000000   0.085042  -0.114057   0.142271
    1  H p    1  H p   0.000000  -0.085042  -0.114057   0.142271
    4  H s    3  H s  -0.000000   0.000188   0.117158   0.117158
    3  H s    4  H s   0.000000  -0.000188   0.117158   0.117158
    2  H s    1  H s  -0.000000   0.000188  -0.117158   0.117158
    1  H s    2  H s   0.000000  -0.000188  -0.117158   0.117158
    4  H s    4  H p  -0.000000   0.002301   0.098983   0.099009
    3  H s    3  H p   0.000000  -0.002301   0.098983   0.099009
    2  H s    2  H p  -0.000000   0.002301  -0.098983   0.099009
    1  H s    1  H p   0.000000  -0.002301  -0.098983   0.099009
    4  H s    2  H s   0.000000  -0.042209  -0.000152   0.042209
    3  H s    1  H s  -0.000000   0.042209  -0.000152   0.042209
    2  H s    4  H s   0.000000  -0.042209   0.000152   0.042209
    1  H s    3  H s  -0.000000   0.042209   0.000152   0.042209
    4  H p    4  H s  -0.000000  -0.002106   0.030064   0.030138
    3  H p    3  H s   0.000000   0.002106   0.030064   0.030138
    2  H p    2  H s  -0.000000  -0.002106  -0.030064   0.030138
    1  H p    1  H s   0.000000   0.002106  -0.030064   0.030138
    4  H s    3  H p  -0.000000   0.000045   0.014909   0.014909
    3  H s    4  H p   0.000000  -0.000045   0.014909   0.014909
    2  H s    1  H p  -0.000000   0.000045  -0.014909   0.014909
    1  H s    2  H p   0.000000  -0.000045  -0.014909   0.014909
    3  H s    1  H p   0.000000  -0.010362  -0.004495   0.011295
    1  H s    3  H p   0.000000  -0.010362   0.004495   0.011295
    4  H s    2  H p  -0.000000   0.010362  -0.004495   0.011295
    2  H s    4  H p  -0.000000   0.010362   0.004495   0.011295
    4  H p    3  H s  -0.000000   0.000040   0.005674   0.005674
    2  H p    1  H s  -0.000000   0.000040  -0.005674   0.005674
    3  H p    4  H s   0.000000  -0.000040   0.005674   0.005674
    1  H p    2  H s   0.000000  -0.000040  -0.005674   0.005674
    4  H p    2  H s  -0.000000   0.003323   0.001375   0.003596
    3  H p    1  H s   0.000000  -0.003323   0.001375   0.003596
    2  H p    4  H s  -0.000000   0.003323  -0.001375   0.003596
    1  H p    3  H s   0.000000  -0.003323  -0.001375   0.003596
    4  H s    1  H p   0.000000  -0.002212  -0.001332   0.002582
    3  H s    2  H p  -0.000000   0.002212  -0.001332   0.002582
    2  H s    3  H p   0.000000  -0.002212   0.001332   0.002582
    1  H s    4  H p  -0.000000   0.002212   0.001332   0.002582
    4  H p    3  H p   0.000000   0.000000   0.000894   0.000894
    3  H p    4  H p   0.000000   0.000000   0.000894   0.000894
    2  H p    1  H p   0.000000   0.000000  -0.000894   0.000894
    1  H p    2  H p   0.000000   0.000000  -0.000894   0.000894
    4  H p    1  H s  -0.000000   0.000681   0.000346   0.000764
    3  H p    2  H s   0.000000  -0.000681   0.000346   0.000764
    2  H p    3  H s  -0.000000   0.000681  -0.000346   0.000764
    1  H p    4  H s   0.000000  -0.000681  -0.000346   0.000764
    5  C s    2  H s   0.000000  -0.000219   0.000657   0.000693
    5  C s    1  H s  -0.000000   0.000219   0.000657   0.000693
    6  C s    4  H s   0.000000  -0.000219  -0.000657   0.000693
    6  C s    3  H s  -0.000000   0.000219  -0.000657   0.000693
    6  C s    6  C s   0.000000   0.000000  -0.000408   0.000408
    5  C s    5  C s   0.000000   0.000000   0.000408   0.000408
    4  H s    6  C s   0.000000  -0.000233  -0.000331   0.000405
    1  H s    5  C s  -0.000000   0.000233   0.000331   0.000405
    3  H s    6  C s  -0.000000   0.000233  -0.000331   0.000405
    2  H s    5  C s   0.000000  -0.000233   0.000331   0.000405
    6  C s    4  H p  -0.000000   0.000209   0.000184   0.000279
    6  C s    3  H p   0.000000  -0.000209   0.000184   0.000279
    5  C s    2  H p  -0.000000   0.000209  -0.000184   0.000279
    5  C s    1  H p   0.000000  -0.000209  -0.000184   0.000279
    4  H p    2  H p   0.000000  -0.000221  -0.000000   0.000221
    3  H p    1  H p  -0.000000   0.000221  -0.000000   0.000221
    2  H p    4  H p   0.000000  -0.000221   0.000000   0.000221
    1  H p    3  H p  -0.000000   0.000221   0.000000   0.000221
    4  H s    1  H s   0.000000  -0.000049  -0.000066   0.000082
    2  H s    3  H s   0.000000  -0.000049   0.000066   0.000082
    3  H s    2  H s  -0.000000   0.000049  -0.000066   0.000082
    1  H s    4  H s  -0.000000   0.000049   0.000066   0.000082
    3  H p    6  C s   0.000000  -0.000069   0.000004   0.000070
    2  H p    5  C s  -0.000000   0.000069  -0.000004   0.000070
    4  H p    6  C s  -0.000000   0.000069   0.000004   0.000070
    1  H p    5  C s   0.000000  -0.000069  -0.000004   0.000070
    6  C s    2  H s  -0.000000   0.000035   0.000044   0.000056
    6  C s    1  H s   0.000000  -0.000035   0.000044   0.000056
    5  C s    4  H s  -0.000000   0.000035  -0.000044   0.000056
    5  C s    3  H s   0.000000  -0.000035  -0.000044   0.000056
    4  H s    5  C s  -0.000000   0.000036   0.000008   0.000037
    1  H s    6  C s   0.000000  -0.000036  -0.000008   0.000037
    3  H s    5  C s   0.000000  -0.000036   0.000008   0.000037
    2  H s    6  C s  -0.000000   0.000036  -0.000008   0.000037
    6  C s    2  H p   0.000000  -0.000016   0.000009   0.000018
    6  C s    1  H p  -0.000000   0.000016   0.000009   0.000018
    5  C s    4  H p   0.000000  -0.000016  -0.000009   0.000018
    5  C s    3  H p  -0.000000   0.000016  -0.000009   0.000018
    4  H p    5  C s   0.000000  -0.000004  -0.000002   0.000005
    1  H p    6  C s  -0.000000   0.000004   0.000002   0.000005
    3  H p    5  C s  -0.000000   0.000004  -0.000002   0.000005
    2  H p    6  C s   0.000000  -0.000004   0.000002   0.000005
  ===============================================================


  ===============================================================

  Excited mixed state   : excitation energy =  0.214942 Eh =   5.8489 eV =   47174.3 cm**-1 

  ==> Spin-adaptation correction using S+ <==
  Most important corresponding occupied/virtual orbitals:

  Pair  Irrep  MO  <phi_b|phi_a>
     0     B3u    0    1.000000
     1      Ag    0    0.025821
     2     B2u    0    0.025126
     3     B3g    0    0.018252
     4     B1u    0    0.017692
     5      Ag    1    0.006608
     6     B1u    1    0.000628
     7      Ag    2    0.000499

  Original occupation numbers:
	NA   [     3,    0,    1,    1,    0,    2,    1,    0 ]
	NB   [     3,    0,    0,    1,    0,    2,    1,    1 ]

  Final occupation numbers:
	NA   [     3,    0,    1,    1,    0,    2,    1,    1 ]
	NB   [     3,    0,    0,    1,    0,    2,    1,    0 ]

  Triplet state energy (S+) 1-B1u        -78.455779491 Eh 

  Singlet state energy (S+) 1-B1u        -78.361575900 Eh 

  Excited triplet state 1-B1u : excitation energy (S+) =  0.167840 Eh =   4.5672 eV =   36836.6 cm**-1 
  Excited singlet state 1-B1u : excitation energy (S+) =  0.262044 Eh =   7.1306 eV =   57511.9 cm**-1 

  Transition Dipole Moment = (0.000000,0.000000,-2.918991)

   @Spin Contamination Metric:   2.001988487E+00
   @S^2 Expected:                0.000000000E+00
   @S^2 Observed:                2.001988487E+00
   @S   Expected:                0.000000000E+00
   @S   Observed:                0.000000000E+00


  Saved number of holes per irrep (n = 8): 0  0  0  0  0  0  0  0  
  Saved number of particles per irrep (n = 8): 0  0  0  0  0  0  0  0  

  Saving occupied orbitals to File 180.

       ==> OCDFT Excited State Information <==

    ----------------------------------------------------
      State       Energy (Eh)    Omega (eV)   Osc. Str.
    ----------------------------------------------------
     @OCDFT-0     -78.6236195      0.0000      0.0000
     @OCDFT-1     -78.4086777      7.1306      1.4885
    ----------------------------------------------------

*** PSI4 exiting successfully. Buy a developer a beer!
