    -----------------------------------------------------------------------
          PSI4: An Open-Source Ab Initio Electronic Structure Package
                              PSI 4.0 Driver

               Git: Rev {master} 239716821edc564e7d72ede23ba5dcc9ca686c8d

    J. M. Turney, A. C. Simmonett, R. M. Parrish, E. G. Hohenstein,
    F. A. Evangelista, J. T. Fermann, B. J. Mintz, L. A. Burns, J. J. Wilke,
    M. L. Abrams, N. J. Russ, M. L. Leininger, C. L. Janssen, E. T. Seidl,
    W. D. Allen, H. F. Schaefer, R. A. King, E. F. Valeev, C. D. Sherrill,
    and T. D. Crawford, WIREs Comput. Mol. Sci. 2, 556-565 (2012)
    (doi: 10.1002/wcms.93)

                         Additional Contributions by
    A. E. DePrince, M. Saitow, U. Bozkaya, A. Yu. Sokolov
    -----------------------------------------------------------------------

    Process ID:   9701
    PSI4DATADIR: /home/prakash/psi4/lib
    Memory level set to 256.000 MB

  ==> Input File <==

--------------------------------------------------------------------------
#
#sys.path.insert(0, './..')
sys.path.insert(0, '/home/prakash')
import cdft 

molecule h2o {
C       0.0000  0.0000  0.0000
O       0.0000  0.0000  1.1282  
symmetry c1
}


set {
  basis cc-pvdz
  df_scf_guess false
  scf_type pk
#  e_convergence 6 
  d_convergence 1
  maxiter 100
}

set reference uks
set cdft {
  cdft_exc_type valence
  nroots 2
  cdft_spin_adapt_ci false
  cdft_exc_method chp
  cdft_num_project_out 5
  cdft_project_out HP
}

set dft_functional hfexch
energy('ocdft')


--------------------------------------------------------------------------

*** tstart() called on master
*** at Fri Sep  4 13:20:59 2015

/home/prakash/cdft/cdft.so loaded.
Reading options from the CDFT block
Calling plugin cdft.so.

  ==> Orthogonality Constrained DFT <==
    There are an even number of electrons - assuming singlet.
    Specify the multiplicity with the MULTP option in the
    input if this is incorrect


         ---------------------------------------------------------
                                   SCF
            by Justin Turney, Rob Parrish, and Andy Simmonett
                              UKS Reference
                        1 Threads,    256 MiB Core
         ---------------------------------------------------------

  ==> Geometry <==

    Molecular point group: c1
    Full point group: C_inf_v

    Geometry (in Angstrom), charge = 0, multiplicity = 1:

       Center              X                  Y                   Z       
    ------------   -----------------  -----------------  -----------------
           C          0.000000000000     0.000000000000    -0.644597882116
           O          0.000000000000     0.000000000000     0.483602117884

  Running in c1 symmetry.

  Rotational constants: A = ************  B =      1.93170  C =      1.93170 [cm^-1]
  Rotational constants: A = ************  B =  57910.98880  C =  57910.98880 [MHz]
  Nuclear repulsion =   22.514187211770960

  Charge       = 0
  Multiplicity = 1
  Electrons    = 14
  Nalpha       = 7
  Nbeta        = 7

  ==> Algorithm <==

  SCF Algorithm Type is PK.
  DIIS enabled.
  MOM disabled.
  Fractional occupation disabled.
  Guess Type is CORE.
  Energy threshold   = 1.00e-06
  Density threshold  = 1.00e-01
  Integral threshold = 1.00e-12

  ==> Primary Basis <==

  Basis Set: CC-PVDZ
    Number of shells: 12
    Number of basis function: 28
    Number of Cartesian functions: 30
    Spherical Harmonics?: true
    Max angular momentum: 2

  ==> DFT Potential <==

   => HFexch Composite Functional <= 

 DFT with 100% non-local exchange  

   Hartee-Fock paper I do not know yet

    Points   =           5000
    Deriv    =              1
    GGA      =          FALSE
    Meta     =          FALSE

    X_LRC        =          FALSE
    X_Hybrid     =           TRUE
    X_Alpha      =   1.000000E+00
    X_Omega      =   0.000000E+00
    C_LRC        =          FALSE
    C_Hybrid     =          FALSE
    C_Alpha      =   0.000000E+00
    C_Omega      =   0.000000E+00

   => Exchange Functionals <=

    0.0000        
    1.0000      HF 

   => Correlation Functionals <=


   => Molecular Quadrature <=

    Radial Scheme    =       TREUTLER
    Pruning Scheme   =           FLAT
    Nuclear Scheme   =       TREUTLER

    BS radius alpha  =              1
    Pruning alpha    =              1
    Radial Points    =             75
    Spherical Points =            302
    Total Points     =          42745
    Total Blocks     =             44
    Max Points       =           2734
    Max Functions    =             28


  ==> Unrestricted Orthogonality Constrained DFT (OCDFT) <==

  ==> Pre-Iterations <==

   -------------------------------------------------------
    Irrep   Nso     Nmo     Nalpha   Nbeta   Ndocc  Nsocc
   -------------------------------------------------------
     A         28      28       0       0       0       0
   -------------------------------------------------------
    Total      28      28       7       7       7       0
   -------------------------------------------------------

 OEINTS: Overlap, kinetic, potential, dipole, and quadrupole integrals
         stored in file 35.

  ==> Integral Setup <==

 MINTS: Wrapper to libmints.
   by Justin Turney

   Calculation information:
      Number of atoms:                   2
      Number of AO shells:              12
      Number of SO shells:              12
      Number of primitives:             44
      Number of atomic orbitals:        30
      Number of basis functions:        28

      Number of irreps:                  1
      Integral cutoff                 1.00e-12
      Number of functions per irrep: [  28 ]

 OEINTS: Overlap, kinetic, potential, dipole, and quadrupole integrals
         stored in file 35.

      Computing two-electron integrals...done
      Computed 19125 non-zero two-electron integrals.
        Stored in file 33.

	Batch   1 pq = [       0,     406] index = [             0,82621]
  ==> DiskJK: Disk-Based J/K Matrices <==

    J tasked:                  Yes
    K tasked:                  Yes
    wK tasked:                  No
    Memory (MB):               183
    Schwarz Cutoff:          1E-12

  Minimum eigenvalue in the overlap matrix is 2.1731739803E-02.
  Using Symmetric Orthogonalization.
  SCF Guess: Core (One-Electron) Hamiltonian.

  ==> Iterations <==

                        Total Energy        Delta E     RMS |[F,P]|

   @UKS iter   1:  -102.19478362873195   -1.02195e+02   2.37956e-01 
   @UKS iter   2:   -99.73610818747778    2.45868e+00   1.95311e-01 DIIS
   @UKS iter   3:  -112.38498857049281   -1.26489e+01   3.07927e-02 DIIS
   @UKS iter   4:  -112.73296331320974   -3.47975e-01   4.17790e-03 DIIS
   @UKS iter   5:  -112.74718030673067   -1.42170e-02   1.89058e-03 DIIS
   @UKS iter   6:  -112.74855153208524   -1.37123e-03   6.21624e-04 DIIS
   @UKS iter   7:  -112.74928490469151   -7.33373e-04   1.11902e-04 DIIS
   @UKS iter   8:  -112.74929238866137   -7.48397e-06   3.35916e-05 DIIS
   @UKS iter   9:  -112.74929280104956   -4.12388e-07   3.24546e-06 DIIS

  ==> Post-Iterations <==

   @Spin Contamination Metric:   3.463895837E-14
   @S^2 Expected:                0.000000000E+00
   @S^2 Observed:                3.463895837E-14
   @S   Expected:                0.000000000E+00
   @S   Observed:                0.000000000E+00

    Orbital Energies (a.u.)
    -----------------------

    Alpha Occupied:                                                       

       1A    -20.669339     2A    -11.366635     3A     -1.522945  
       4A     -0.802111     5A     -0.634421     6A     -0.634421  
       7A     -0.548819  

    Alpha Virtual:                                                        

       8A      0.154636     9A      0.154636    10A      0.382575  
      11A      0.672211    12A      0.672211    13A      0.726510  
      14A      1.018231    15A      1.061908    16A      1.224408  
      17A      1.224408    18A      1.344241    19A      1.344241  
      20A      1.558387    21A      1.558387    22A      1.938994  
      23A      2.343114    24A      2.937096    25A      2.937096  
      26A      3.426345    27A      3.426345    28A      3.871890  

    Beta Occupied:                                                        

       1A    -20.669339     2A    -11.366635     3A     -1.522945  
       4A     -0.802111     5A     -0.634421     6A     -0.634421  
       7A     -0.548819  

    Beta Virtual:                                                         

       8A      0.154636     9A      0.154636    10A      0.382575  
      11A      0.672211    12A      0.672211    13A      0.726510  
      14A      1.018231    15A      1.061908    16A      1.224408  
      17A      1.224408    18A      1.344241    19A      1.344241  
      20A      1.558387    21A      1.558387    22A      1.938994  
      23A      2.343114    24A      2.937096    25A      2.937096  
      26A      3.426345    27A      3.426345    28A      3.871890  

    Final Occupation by Irrep:
              A 
    DOCC [     7 ]
    SOCC [     0 ]

  Energy converged.

  @UKS Final Energy:  -112.74929280104956

   => Energetics <=

    Nuclear Repulsion Energy =              0.0000000000000000
    One-Electron Energy =                   0.0000000000000000
    Two-Electron Energy =                   0.0000000000000000
    DFT Exchange-Correlation Energy =       0.0000000000000000
    Empirical Dispersion Energy =           0.0000000000000000
    Total Energy =                          0.0000000000000000



Properties will be evaluated at   0.000000,   0.000000,   0.000000 Bohr
  ==> Properties <==


Properties computed using the SCF density matrix

  Nuclear Dipole Moment: (a.u.)
     X:     0.0000      Y:     0.0000      Z:     0.0023

  Electronic Dipole Moment: (a.u.)
     X:    -0.0000      Y:     0.0000      Z:    -0.0942

  Dipole Moment: (a.u.)
     X:    -0.0000      Y:     0.0000      Z:    -0.0919     Total:     0.0919

  Dipole Moment: (Debye)
     X:    -0.0000      Y:     0.0000      Z:    -0.2336     Total:     0.2336


  Saving occupied orbitals to File 180.
    There are an even number of electrons - assuming singlet.
    Specify the multiplicity with the MULTP option in the
    input if this is incorrect


         ---------------------------------------------------------
                                   SCF
            by Justin Turney, Rob Parrish, and Andy Simmonett
                              UKS Reference
                        1 Threads,    256 MiB Core
         ---------------------------------------------------------

  ==> Geometry <==

    Molecular point group: c1
    Full point group: C_inf_v

    Geometry (in Angstrom), charge = 0, multiplicity = 1:

       Center              X                  Y                   Z       
    ------------   -----------------  -----------------  -----------------
           C          0.000000000000     0.000000000000    -0.644597882116
           O          0.000000000000     0.000000000000     0.483602117884

  Running in c1 symmetry.

  Rotational constants: A = ************  B =      1.93170  C =      1.93170 [cm^-1]
  Rotational constants: A = ************  B =  57910.98880  C =  57910.98880 [MHz]
  Nuclear repulsion =   22.514187211770960

  Charge       = 0
  Multiplicity = 1
  Electrons    = 14
  Nalpha       = 7
  Nbeta        = 7

  ==> Algorithm <==

  SCF Algorithm Type is PK.
  DIIS enabled.
  MOM disabled.
  Fractional occupation disabled.
  Guess Type is CORE.
  Energy threshold   = 1.00e-06
  Density threshold  = 1.00e-01
  Integral threshold = 1.00e-12

  ==> Primary Basis <==

  Basis Set: CC-PVDZ
    Number of shells: 12
    Number of basis function: 28
    Number of Cartesian functions: 30
    Spherical Harmonics?: true
    Max angular momentum: 2

  ==> DFT Potential <==

   => HFexch Composite Functional <= 

 DFT with 100% non-local exchange  

   Hartee-Fock paper I do not know yet

    Points   =           5000
    Deriv    =              1
    GGA      =          FALSE
    Meta     =          FALSE

    X_LRC        =          FALSE
    X_Hybrid     =           TRUE
    X_Alpha      =   1.000000E+00
    X_Omega      =   0.000000E+00
    C_LRC        =          FALSE
    C_Hybrid     =          FALSE
    C_Alpha      =   0.000000E+00
    C_Omega      =   0.000000E+00

   => Exchange Functionals <=

    0.0000        
    1.0000      HF 

   => Correlation Functionals <=


   => Molecular Quadrature <=

    Radial Scheme    =       TREUTLER
    Pruning Scheme   =           FLAT
    Nuclear Scheme   =       TREUTLER

    BS radius alpha  =              1
    Pruning alpha    =              1
    Radial Points    =             75
    Spherical Points =            302
    Total Points     =          42745
    Total Blocks     =             44
    Max Points       =           2734
    Max Functions    =             28


  ==> Unrestricted Orthogonality Constrained DFT (OCDFT) <==

  Saving the reference orbitals for an excited state computation

  Projecting out holes and particles.

  STATE = 1
  Save the first hole in the series.  Compute a new particle and save it.
  Saved holes 0
    Saved number of holes per irrep (n = 1): 0  

    Saved number of particles per irrep (n = 1): 0  

    project_naholepi_ (n = 1): 0  
  ==> Pre-Iterations <==

   -------------------------------------------------------
    Irrep   Nso     Nmo     Nalpha   Nbeta   Ndocc  Nsocc
   -------------------------------------------------------
     A         28      28       0       0       0       0
   -------------------------------------------------------
    Total      28      28       7       7       7       0
   -------------------------------------------------------

 OEINTS: Overlap, kinetic, potential, dipole, and quadrupole integrals
         stored in file 35.

  ==> Integral Setup <==

 MINTS: Wrapper to libmints.
   by Justin Turney

   Calculation information:
      Number of atoms:                   2
      Number of AO shells:              12
      Number of SO shells:              12
      Number of primitives:             44
      Number of atomic orbitals:        30
      Number of basis functions:        28

      Number of irreps:                  1
      Integral cutoff                 1.00e-12
      Number of functions per irrep: [  28 ]

 OEINTS: Overlap, kinetic, potential, dipole, and quadrupole integrals
         stored in file 35.

      Computing two-electron integrals...done
      Computed 19125 non-zero two-electron integrals.
        Stored in file 33.

	Batch   1 pq = [       0,     406] index = [             0,82621]
  ==> DiskJK: Disk-Based J/K Matrices <==

    J tasked:                  Yes
    K tasked:                  Yes
    wK tasked:                  No
    Memory (MB):               183
    Schwarz Cutoff:          1E-12

  Minimum eigenvalue in the overlap matrix is 2.1731739803E-02.
  Using Symmetric Orthogonalization.
  Projecting out 0 previous holes
  Projecting out 0 previous particles

  Ground state symmetry: A
  Excited state symmetry: A

  Lowest energy excitations:
  --------------------------------------
    N   Occupied     Virtual     E(eV)  
  --------------------------------------
    1      7A    ->    8A        19.142
    2      7A    ->    9A        19.142
    3      6A    ->    8A        21.471
    4      6A    ->    9A        21.471
    5      5A    ->    8A        21.471
    6      5A    ->    9A        21.471
    7      7A    ->   10A        25.344
    8      4A    ->    8A        26.034
    9      4A    ->    9A        26.034
   10      6A    ->   10A        27.674
  --------------------------------------

  HOLES:        7A   (-0.548817)
  PARTICLES:    8A   (+0.154636)


  Projecting out particles:  ==> Iterations <==

                        Total Energy        Delta E     RMS |[F,P]|

  Projecting out 0 previous holes
  Projecting out 0 previous particles

  HOLES:        7A   (-0.154134)
  PARTICLES:    8A   (-0.250597)


  Projecting out particles:   @UKS iter   1:  -112.43966506446354   -3.60926e+01   6.85337e-03 
  Projecting out 0 previous holes
  Projecting out 0 previous particles

  HOLES:        7A   (-0.112748)
  PARTICLES:    8A   (-0.246366)


  Projecting out particles:   @UKS iter   2:  -112.47150834749864   -3.18433e-02   1.52514e-03 DIIS
  Projecting out 0 previous holes
  Projecting out 0 previous particles

  HOLES:        7A   (-0.088970)
  PARTICLES:    8A   (-0.246893)


  Projecting out particles:   @UKS iter   3:  -112.47926705588235   -7.75871e-03   8.11907e-04 DIIS
  Projecting out 0 previous holes
  Projecting out 0 previous particles

  HOLES:        7A   (-0.074166)
  PARTICLES:    8A   (-0.253582)


  Projecting out particles:   @UKS iter   4:  -112.48088027327543   -1.61322e-03   9.53946e-04 DIIS
  Projecting out 0 previous holes
  Projecting out 0 previous particles

  HOLES:        7A   (-0.071583)
  PARTICLES:    8A   (-0.256194)


  Projecting out particles:   @UKS iter   5:  -112.48189451338558   -1.01424e-03   3.69066e-04 DIIS
  Projecting out 0 previous holes
  Projecting out 0 previous particles

  HOLES:        7A   (-0.071728)
  PARTICLES:    8A   (-0.256692)


  Projecting out particles:   @UKS iter   6:  -112.48213084734004   -2.36334e-04   8.78048e-05 DIIS
  Projecting out 0 previous holes
  Projecting out 0 previous particles

  HOLES:        7A   (-0.070381)
  PARTICLES:    8A   (-0.257067)


  Projecting out particles:   @UKS iter   7:  -112.48222099816108   -9.01508e-05   1.17378e-04 DIIS
  Projecting out 0 previous holes
  Projecting out 0 previous particles

  HOLES:        7A   (-0.069844)
  PARTICLES:    8A   (-0.256406)


  Projecting out particles:   @UKS iter   8:  -112.48232645399827   -1.05456e-04   8.80052e-05 DIIS
  Projecting out 0 previous holes
  Projecting out 0 previous particles

  HOLES:        7A   (-0.069046)
  PARTICLES:    8A   (-0.256016)


  Projecting out particles:   @UKS iter   9:  -112.48237694456114   -5.04906e-05   7.89516e-05 DIIS
  Projecting out 0 previous holes
  Projecting out 0 previous particles

  HOLES:        7A   (-0.068808)
  PARTICLES:    8A   (-0.255837)


  Projecting out particles:   @UKS iter  10:  -112.48238944151450   -1.24970e-05   3.06749e-05 DIIS
  Projecting out 0 previous holes
  Projecting out 0 previous particles

  HOLES:        7A   (-0.068826)
  PARTICLES:    8A   (-0.255752)


  Projecting out particles:   @UKS iter  11:  -112.48238980769897   -3.66184e-07   2.35652e-05 DIIS

  ==> Post-Iterations <==

   @Spin Contamination Metric:   1.032248743E+00
   @S^2 Expected:                0.000000000E+00
   @S^2 Observed:                1.032248743E+00
   @S   Expected:                0.000000000E+00
   @S   Observed:                0.000000000E+00

    Orbital Energies (a.u.)
    -----------------------

    Alpha Occupied:                                                       

       1A   -100.000000     2A    -20.649759     3A    -11.353418  
       4A     -1.497573     5A     -0.758410     6A     -0.710491  
       7A     -0.627448  

    Alpha Virtual:                                                        

       8A      0.175269     9A      0.388528    10A      0.615482  
      11A      0.679566    12A      0.756220    13A      1.031864  
      14A      1.099908    15A      1.208975    16A      1.232590  
      17A      1.329996    18A      1.331002    19A      1.534879  
      20A      1.566867    21A      1.960944    22A      2.351583  
      23A      2.936181    24A      2.936336    25A      3.436761  
      26A      3.444185    27A      3.894120    28A    100.000000  

    Beta Occupied:                                                        

       1A    -20.632264     2A    -11.370958     3A     -1.481508  
       4A     -0.777379     5A     -0.645781     6A     -0.592991  
       7A     -0.565967  

    Beta Virtual:                                                         

       8A      0.141377     9A      0.180530    10A      0.375841  
      11A      0.647118    12A      0.662947    13A      0.688921  
      14A      1.028790    15A      1.060217    16A      1.254486  
      17A      1.269440    18A      1.344032    19A      1.345624  
      20A      1.514324    21A      1.549785    22A      1.954826  
      23A      2.326357    24A      2.994078    25A      2.994109  
      26A      3.440377    27A      3.464292    28A      3.896995  

    Final Occupation by Irrep:
              A 
    DOCC [     7 ]
    SOCC [     0 ]

  Energy converged.

  @UKS Final Energy:  -112.48238980769897

   => Energetics <=

    Nuclear Repulsion Energy =              0.0000000000000000
    One-Electron Energy =                   0.0000000000000000
    Two-Electron Energy =                   0.0000000000000000
    DFT Exchange-Correlation Energy =       0.0000000000000000
    Empirical Dispersion Energy =           0.0000000000000000
    Total Energy =                          0.0000000000000000



Properties will be evaluated at   0.000000,   0.000000,   0.000000 Bohr
  ==> Properties <==


Properties computed using the SCF density matrix

  Nuclear Dipole Moment: (a.u.)
     X:     0.0000      Y:     0.0000      Z:     0.0023

  Electronic Dipole Moment: (a.u.)
     X:     0.0000      Y:     0.0000      Z:    -0.5804

  Dipole Moment: (a.u.)
     X:     0.0000      Y:     0.0000      Z:    -0.5781     Total:     0.5781

  Dipole Moment: (Debye)
     X:     0.0000      Y:     0.0000      Z:    -1.4693     Total:     1.4693



  Analysis of the hole/particle MOs in terms of the ground state DFT MOs
  Hole:          0A =  99.9% 7A
  Particle:      0A =  91.0% 8A +  6.2% 9A +  2.4% 11A


  Computing transition dipole moments
  2 determinants stored
 det U = 1.000000, det V = -1.000000
 det U = -1.000000, det V = -1.000000
  Corresponding orbitals:
  A(alpha):  (0, 6)
  B(alpha):  (0, 6)
  s(alpha):  2.275262e-16
  A(beta):  
  B(beta):  
  s(beta):  
  Stilde = -0.984333


Properties will be evaluated at   0.000000,   0.000000,   0.000000 Bohr
  ==> Transition dipole moment computed with OCDFT <==


Properties computed using the OCDFT TRANSITION density matrix

  Transition Dipole Moment: (a.u.)
     X:     0.6295      Y:    -0.1341      Z:    -0.0000     Total:     0.6436

  Transition Dipole Moment: (Debye)
     X:     1.6000      Y:    -0.3407      Z:    -0.0000     Total:     1.6359


  Dipole moments from AO integrals: 0.6295 -0.1341 -0.0000
  Mulliken Population Analysis of the Transition Dipole Moment:

  ===============================================================
   Initial     Final     mu(x)      mu(y)      mu(z)       |mu|
  ---------------------------------------------------------------
    1  C s    1  C p   0.816926  -0.173971  -0.000000   0.835245
    1  C s    2  O p  -0.261524   0.055694  -0.000000   0.267388
    1  C p    2  O p   0.139219  -0.029648   0.000000   0.142341
    2  O p    1  C p  -0.094567   0.020139  -0.000000   0.096687
    2  O s    2  O p   0.026364  -0.005615   0.000000   0.026956
    2  O s    1  C p  -0.014676   0.003125   0.000000   0.015005
    1  C d    1  C p   0.013919  -0.002964   0.000000   0.014231
    1  C p    1  C d   0.004577  -0.000975  -0.000000   0.004680
    2  O d    2  O p  -0.002801   0.000597   0.000000   0.002864
    1  C d    2  O p   0.002430  -0.000517  -0.000000   0.002484
    2  O p    2  O d  -0.001855   0.000395   0.000000   0.001896
    1  C s    2  O d   0.001360  -0.000290  -0.000000   0.001391
    1  C p    2  O d  -0.001072   0.000228   0.000000   0.001096
    2  O p    1  C d   0.000858  -0.000183  -0.000000   0.000878
    2  O s    1  C d   0.000215  -0.000046  -0.000000   0.000219
    2  O d    1  C p   0.000184  -0.000039  -0.000000   0.000189
    1  C d    2  O d  -0.000045   0.000010   0.000000   0.000046
    2  O d    1  C d  -0.000008   0.000002   0.000000   0.000008
  ===============================================================


  ===============================================================

  Excited mixed state   : excitation energy =  0.266903 Eh =   7.2628 eV =   58578.4 cm**-1 

  ==> Spin-adaptation correction using S+ <==
  Most important corresponding occupied/virtual orbitals:

  Pair  Irrep  MO  <phi_b|phi_a>
     0       A    0    1.000000
     1       A    1    0.152070
     2       A    2    0.072625
     3       A    3    0.058157
     4       A    4    0.021585
     5       A    5    0.000905
     6       A    6    0.000368

  Original occupation numbers:
	NA   [     7 ]
	NB   [     7 ]

  Final occupation numbers:
	NA   [     8 ]
	NB   [     6 ]

  Triplet state energy (S+) 2-A       -112.524227960 Eh 

  Singlet state energy (S+) 2-A       -112.440551656 Eh 

  Excited triplet state 2-A : excitation energy (S+) =  0.225065 Eh =   6.1243 eV =   49396.0 cm**-1 
  Excited singlet state 2-A : excitation energy (S+) =  0.308741 Eh =   8.4013 eV =   67760.8 cm**-1 

  Transition Dipole Moment = (0.629505,-0.134058,-0.000000)

   @Spin Contamination Metric:   2.032248743E+00
   @S^2 Expected:                0.000000000E+00
   @S^2 Observed:                2.032248743E+00
   @S   Expected:                0.000000000E+00
   @S   Observed:                0.000000000E+00


  Saved number of holes per irrep (n = 1): 0  
  Saved number of particles per irrep (n = 1): 0  

  Saving occupied orbitals to File 180.
    There are an even number of electrons - assuming singlet.
    Specify the multiplicity with the MULTP option in the
    input if this is incorrect


         ---------------------------------------------------------
                                   SCF
            by Justin Turney, Rob Parrish, and Andy Simmonett
                              UKS Reference
                        1 Threads,    256 MiB Core
         ---------------------------------------------------------

  ==> Geometry <==

    Molecular point group: c1
    Full point group: C_inf_v

    Geometry (in Angstrom), charge = 0, multiplicity = 1:

       Center              X                  Y                   Z       
    ------------   -----------------  -----------------  -----------------
           C          0.000000000000     0.000000000000    -0.644597882116
           O          0.000000000000     0.000000000000     0.483602117884

  Running in c1 symmetry.

  Rotational constants: A = ************  B =      1.93170  C =      1.93170 [cm^-1]
  Rotational constants: A = ************  B =  57910.98880  C =  57910.98880 [MHz]
  Nuclear repulsion =   22.514187211770960

  Charge       = 0
  Multiplicity = 1
  Electrons    = 14
  Nalpha       = 7
  Nbeta        = 7

  ==> Algorithm <==

  SCF Algorithm Type is PK.
  DIIS enabled.
  MOM disabled.
  Fractional occupation disabled.
  Guess Type is CORE.
  Energy threshold   = 1.00e-06
  Density threshold  = 1.00e-01
  Integral threshold = 1.00e-12

  ==> Primary Basis <==

  Basis Set: CC-PVDZ
    Number of shells: 12
    Number of basis function: 28
    Number of Cartesian functions: 30
    Spherical Harmonics?: true
    Max angular momentum: 2

  ==> DFT Potential <==

   => HFexch Composite Functional <= 

 DFT with 100% non-local exchange  

   Hartee-Fock paper I do not know yet

    Points   =           5000
    Deriv    =              1
    GGA      =          FALSE
    Meta     =          FALSE

    X_LRC        =          FALSE
    X_Hybrid     =           TRUE
    X_Alpha      =   1.000000E+00
    X_Omega      =   0.000000E+00
    C_LRC        =          FALSE
    C_Hybrid     =          FALSE
    C_Alpha      =   0.000000E+00
    C_Omega      =   0.000000E+00

   => Exchange Functionals <=

    0.0000        
    1.0000      HF 

   => Correlation Functionals <=


   => Molecular Quadrature <=

    Radial Scheme    =       TREUTLER
    Pruning Scheme   =           FLAT
    Nuclear Scheme   =       TREUTLER

    BS radius alpha  =              1
    Pruning alpha    =              1
    Radial Points    =             75
    Spherical Points =            302
    Total Points     =          42745
    Total Blocks     =             44
    Max Points       =           2734
    Max Functions    =             28


  ==> Unrestricted Orthogonality Constrained DFT (OCDFT) <==

  Saving the reference orbitals for an excited state computation

  Projecting out holes and particles.

  STATE = 2
  Compute a new particle and save it, project out the holes but don't save it.  Saved holes 1
    Saved number of holes per irrep (n = 1): 1  

    Number of particles per irrep (n = 1): 1  

    project_naholepi_ (n = 1): 0  
  ==> Pre-Iterations <==

   -------------------------------------------------------
    Irrep   Nso     Nmo     Nalpha   Nbeta   Ndocc  Nsocc
   -------------------------------------------------------
     A         28      28       0       0       0       0
   -------------------------------------------------------
    Total      28      28       7       7       7       0
   -------------------------------------------------------

 OEINTS: Overlap, kinetic, potential, dipole, and quadrupole integrals
         stored in file 35.

  ==> Integral Setup <==

 MINTS: Wrapper to libmints.
   by Justin Turney

   Calculation information:
      Number of atoms:                   2
      Number of AO shells:              12
      Number of SO shells:              12
      Number of primitives:             44
      Number of atomic orbitals:        30
      Number of basis functions:        28

      Number of irreps:                  1
      Integral cutoff                 1.00e-12
      Number of functions per irrep: [  28 ]

 OEINTS: Overlap, kinetic, potential, dipole, and quadrupole integrals
         stored in file 35.

      Computing two-electron integrals...done
      Computed 19125 non-zero two-electron integrals.
        Stored in file 33.

	Batch   1 pq = [       0,     406] index = [             0,82621]
  ==> DiskJK: Disk-Based J/K Matrices <==

    J tasked:                  Yes
    K tasked:                  Yes
    wK tasked:                  No
    Memory (MB):               183
    Schwarz Cutoff:          1E-12

  Minimum eigenvalue in the overlap matrix is 2.1731739803E-02.
  Using Symmetric Orthogonalization.
  Projecting out 0 previous holes
  Projecting out 1 previous particles

  Ground state symmetry: A
  Excited state symmetry: A

  Lowest energy excitations:
  --------------------------------------
    N   Occupied     Virtual     E(eV)  
  --------------------------------------
    1      7A    ->    9A        19.142
    2      6A    ->    9A        21.471
    3      5A    ->    9A        21.471
    4      7A    ->   10A        25.344
    5      4A    ->    9A        26.034
    6      6A    ->   10A        27.674
    7      5A    ->   10A        27.674
    8      4A    ->   10A        32.237
    9      7A    ->   11A        32.871
   10      7A    ->   12A        33.226
  --------------------------------------

  HOLES:        7A   (-0.548817)
  PARTICLES:    9A   (+0.154636)


  Projecting out particles:  ==> Iterations <==

                        Total Energy        Delta E     RMS |[F,P]|

  Projecting out 0 previous holes
  Projecting out 1 previous particles

  HOLES:        7A   (-0.154134)
  PARTICLES:    8A   (-0.250598)


  Projecting out particles:   @UKS iter   1:  -112.43966450332144   -3.60926e+01   6.61315e-03 
  Projecting out 0 previous holes
  Projecting out 1 previous particles

  HOLES:        7A   (-0.110801)
  PARTICLES:    8A   (-0.246366)


  Projecting out particles:   @UKS iter   2:  -112.47459265597979   -3.49282e-02   1.31290e-03 DIIS
  Projecting out 0 previous holes
  Projecting out 1 previous particles

  HOLES:        7A   (-0.087058)
  PARTICLES:    8A   (-0.247372)


  Projecting out particles:   @UKS iter   3:  -112.47977453412005   -5.18188e-03   8.47155e-04 DIIS
  Projecting out 0 previous holes
  Projecting out 1 previous particles

  HOLES:        7A   (-0.075307)
  PARTICLES:    8A   (-0.253028)


  Projecting out particles:   @UKS iter   4:  -112.48125418119794   -1.47965e-03   8.06464e-04 DIIS
  Projecting out 0 previous holes
  Projecting out 1 previous particles

  HOLES:        7A   (-0.075429)
  PARTICLES:    8A   (-0.252878)


  Projecting out particles:   @UKS iter   5:  -112.48197138237057   -7.17201e-04   2.43844e-05 DIIS
  Projecting out 0 previous holes
  Projecting out 1 previous particles

  HOLES:        7A   (-0.073999)
  PARTICLES:    8A   (-0.253216)


  Projecting out particles:   @UKS iter   6:  -112.48195799440421    1.33880e-05   3.61721e-04 DIIS
  Projecting out 0 previous holes
  Projecting out 1 previous particles

  HOLES:        7A   (-0.073459)
  PARTICLES:    8A   (-0.253156)


  Projecting out particles:   @UKS iter   7:  -112.48204589941545   -8.79050e-05   1.05703e-04 DIIS
  Projecting out 0 previous holes
  Projecting out 1 previous particles

  HOLES:        7A   (-0.070041)
  PARTICLES:    8A   (-0.256165)


  Projecting out particles:   @UKS iter   8:  -112.48204260360963    3.29581e-06   3.84965e-04 DIIS
  Projecting out 0 previous holes
  Projecting out 1 previous particles

  HOLES:        7A   (-0.072664)
  PARTICLES:    8A   (-0.256631)


  Projecting out particles:   @UKS iter   9:  -112.48213658796740   -9.39844e-05   7.77589e-04 DIIS
  Projecting out 0 previous holes
  Projecting out 1 previous particles

  HOLES:        7A   (-0.074965)
  PARTICLES:    8A   (-0.259379)


  Projecting out particles:   @UKS iter  10:  -112.48183994935513    2.96639e-04   7.77632e-04 DIIS
  Projecting out 0 previous holes
  Projecting out 1 previous particles

  HOLES:        7A   (-0.076994)
  PARTICLES:    8A   (-0.261090)


  Projecting out particles:   @UKS iter  11:  -112.48099588642140    8.44063e-04   3.66820e-04 DIIS
  Projecting out 0 previous holes
  Projecting out 1 previous particles

  HOLES:        7A   (-0.076837)
  PARTICLES:    8A   (-0.261001)


  Projecting out particles:   @UKS iter  12:  -112.48043993454141    5.55952e-04   4.67336e-05 DIIS
  Projecting out 0 previous holes
  Projecting out 1 previous particles

  HOLES:        7A   (-0.076860)
  PARTICLES:    8A   (-0.261007)


  Projecting out particles:   @UKS iter  13:  -112.48051376121732   -7.38267e-05   2.01390e-05 DIIS
  Projecting out 0 previous holes
  Projecting out 1 previous particles

  HOLES:        7A   (-0.076818)
  PARTICLES:    8A   (-0.260973)


  Projecting out particles:   @UKS iter  14:  -112.48053480593251   -2.10447e-05   1.65869e-05 DIIS
  Projecting out 0 previous holes
  Projecting out 1 previous particles

  HOLES:        7A   (-0.076788)
  PARTICLES:    8A   (-0.260950)


  Projecting out particles:   @UKS iter  15:  -112.48055807157576   -2.32656e-05   1.02768e-05 DIIS
  Projecting out 0 previous holes
  Projecting out 1 previous particles

  HOLES:        7A   (-0.076772)
  PARTICLES:    8A   (-0.260938)


  Projecting out particles:   @UKS iter  16:  -112.48057145865629   -1.33871e-05   6.24194e-06 DIIS
  Projecting out 0 previous holes
  Projecting out 1 previous particles

  HOLES:        7A   (-0.076764)
  PARTICLES:    8A   (-0.260933)


  Projecting out particles:   @UKS iter  17:  -112.48057836486579   -6.90621e-06   3.95755e-06 DIIS
  Projecting out 0 previous holes
  Projecting out 1 previous particles

  HOLES:        7A   (-0.076761)
  PARTICLES:    8A   (-0.260931)


  Projecting out particles:   @UKS iter  18:  -112.48058174580476   -3.38094e-06   2.65310e-06 DIIS
  Projecting out 0 previous holes
  Projecting out 1 previous particles

  HOLES:        7A   (-0.076760)
  PARTICLES:    8A   (-0.260930)


  Projecting out particles:   @UKS iter  19:  -112.48058337496931   -1.62916e-06   1.84801e-06 DIIS
  Projecting out 0 previous holes
  Projecting out 1 previous particles

  HOLES:        7A   (-0.076760)
  PARTICLES:    8A   (-0.260930)


  Projecting out particles:   @UKS iter  20:  -112.48058417645569   -8.01486e-07   1.31134e-06 DIIS

  ==> Post-Iterations <==

   @Spin Contamination Metric:   1.014910917E+00
   @S^2 Expected:                0.000000000E+00
   @S^2 Observed:                1.014910917E+00
   @S   Expected:                0.000000000E+00
   @S   Observed:                0.000000000E+00

    Orbital Energies (a.u.)
    -----------------------

    Alpha Occupied:                                                       

       1A   -100.000000     2A    -20.646515     3A    -11.361002  
       4A     -1.488384     5A     -0.737717     6A     -0.708494  
       7A     -0.617842  

    Alpha Virtual:                                                        

       8A      0.388259     9A      0.613171    10A      0.654866  
      11A      0.752112    12A      1.030393    13A      1.107832  
      14A      1.211640    15A      1.236911    16A      1.323118  
      17A      1.323886    18A      1.534863    19A      1.566147  
      20A      1.964820    21A      2.353912    22A      2.943333  
      23A      2.943534    24A      3.439882    25A      3.450282  
      26A      3.897114    27A    100.000000    28A    200.000000  

    Beta Occupied:                                                        

       1A    -20.639622     2A    -11.371596     3A     -1.497272  
       4A     -0.787459     5A     -0.642710     6A     -0.611576  
       7A     -0.575742  

    Beta Virtual:                                                         

       8A      0.140098     9A      0.181373    10A      0.377687  
      11A      0.656813    12A      0.667387    13A      0.692742  
      14A      1.026787    15A      1.053981    16A      1.241079  
      17A      1.262403    18A      1.352861    19A      1.354055  
      20A      1.514613    21A      1.550767    22A      1.948336  
      23A      2.323068    24A      2.983809    25A      2.983859  
      26A      3.428510    27A      3.455241    28A      3.885001  

    Final Occupation by Irrep:
              A 
    DOCC [     7 ]
    SOCC [     0 ]

  Energy converged.

  @UKS Final Energy:  -112.48058417645569

   => Energetics <=

    Nuclear Repulsion Energy =              0.0000000000000000
    One-Electron Energy =                   0.0000000000000000
    Two-Electron Energy =                   0.0000000000000000
    DFT Exchange-Correlation Energy =       0.0000000000000000
    Empirical Dispersion Energy =           0.0000000000000000
    Total Energy =                          0.0000000000000000



Properties will be evaluated at   0.000000,   0.000000,   0.000000 Bohr
  ==> Properties <==


Properties computed using the SCF density matrix

  Nuclear Dipole Moment: (a.u.)
     X:     0.0000      Y:     0.0000      Z:     0.0023

  Electronic Dipole Moment: (a.u.)
     X:    -0.0000      Y:    -0.0000      Z:    -0.5668

  Dipole Moment: (a.u.)
     X:    -0.0000      Y:    -0.0000      Z:    -0.5645     Total:     0.5645

  Dipole Moment: (Debye)
     X:    -0.0000      Y:    -0.0000      Z:    -1.4349     Total:     1.4349



  Analysis of the hole/particle MOs in terms of the ground state DFT MOs
  Hole:          0A =  99.4% 7A
  Particle:      0A =  91.0% 9A +  6.2% 8A +  2.5% 12A


  Computing transition dipole moments
  3 determinants stored
 det U = -1.000000, det V = -1.000000
 det U = -1.000000, det V = 1.000000
  Corresponding orbitals:
  A(alpha):  (0, 6)
  B(alpha):  (0, 6)
  s(alpha):  1.323020e-16
  A(beta):  
  B(beta):  
  s(beta):  
  Stilde = -0.991299


Properties will be evaluated at   0.000000,   0.000000,   0.000000 Bohr
  ==> Transition dipole moment computed with OCDFT <==


Properties computed using the OCDFT TRANSITION density matrix

  Transition Dipole Moment: (a.u.)
     X:     0.1261      Y:     0.5919      Z:     0.0000     Total:     0.6052

  Transition Dipole Moment: (Debye)
     X:     0.3204      Y:     1.5045      Z:     0.0000     Total:     1.5383


  Dipole moments from AO integrals: 0.1261 0.5919 0.0000
  Mulliken Population Analysis of the Transition Dipole Moment:

  ===============================================================
   Initial     Final     mu(x)      mu(y)      mu(z)       |mu|
  ---------------------------------------------------------------
    1  C s    1  C p   0.168406   0.790794  -0.000000   0.808527
    1  C s    2  O p  -0.054319  -0.255069  -0.000000   0.260789
    1  C p    2  O p   0.029984   0.140799  -0.000000   0.143956
    2  O p    1  C p  -0.023223  -0.109049   0.000000   0.111495
    1  C d    1  C p   0.003154   0.014810  -0.000000   0.015142
    2  O s    2  O p   0.001794   0.008425   0.000000   0.008614
    1  C p    1  C d   0.000985   0.004623  -0.000000   0.004727
    2  O d    2  O p  -0.000685  -0.003217   0.000000   0.003290
    1  C d    2  O p   0.000545   0.002561  -0.000000   0.002618
    2  O s    1  C p  -0.000448  -0.002105  -0.000000   0.002152
    2  O p    2  O d  -0.000434  -0.002039  -0.000000   0.002085
    1  C s    2  O d   0.000262   0.001229   0.000000   0.001257
    1  C p    2  O d  -0.000223  -0.001046  -0.000000   0.001069
    2  O p    1  C d   0.000210   0.000986  -0.000000   0.001008
    2  O d    1  C p   0.000044   0.000209  -0.000000   0.000214
    2  O s    1  C d   0.000014   0.000064  -0.000000   0.000066
    1  C d    2  O d  -0.000010  -0.000045  -0.000000   0.000046
    2  O d    1  C d  -0.000002  -0.000009   0.000000   0.000009
  ===============================================================


  ===============================================================

  Excited mixed state   : excitation energy =  0.268709 Eh =   7.3119 eV =   58974.7 cm**-1 

  ==> Spin-adaptation correction using S+ <==
  Most important corresponding occupied/virtual orbitals:

  Pair  Irrep  MO  <phi_b|phi_a>
     0       A    0    1.000000
     1       A    1    0.097519
     2       A    2    0.051803
     3       A    3    0.047340
     4       A    4    0.021802
     5       A    5    0.000985
     6       A    6    0.000333

  Original occupation numbers:
	NA   [     7 ]
	NB   [     7 ]

  Final occupation numbers:
	NA   [     8 ]
	NB   [     6 ]

  Triplet state energy (S+) 3-A       -112.518665686 Eh 

  Singlet state energy (S+) 3-A       -112.442502667 Eh 

  Excited triplet state 3-A : excitation energy (S+) =  0.230627 Eh =   6.2757 eV =   50616.8 cm**-1 
  Excited singlet state 3-A : excitation energy (S+) =  0.306790 Eh =   8.3482 eV =   67332.6 cm**-1 

  Transition Dipole Moment = (0.126055,0.591922,0.000000)

   @Spin Contamination Metric:   2.014910917E+00
   @S^2 Expected:                0.000000000E+00
   @S^2 Observed:                2.014910917E+00
   @S   Expected:                0.000000000E+00
   @S   Observed:                0.000000000E+00


  Number of particles per irrep (n = 1): 1  

  Saving occupied orbitals to File 180.

       ==> OCDFT Excited State Information <==

    ----------------------------------------------------
      State       Energy (Eh)    Omega (eV)   Osc. Str.
    ----------------------------------------------------
     @OCDFT-0    -112.7492928      0.0000      0.0000
     @OCDFT-1    -112.4823898      8.4013      0.0853
     @OCDFT-2    -112.4805842      8.3482      0.0749
    ----------------------------------------------------
 MINTS: Wrapper to libmints.
   by Justin Turney

   Calculation information:
      Number of atoms:                   2
      Number of AO shells:              12
      Number of SO shells:              12
      Number of primitives:             44
      Number of atomic orbitals:        30
      Number of basis functions:        28

      Number of irreps:                  1
      Integral cutoff                 1.00e-12
      Number of functions per irrep: [  28 ]

 OEINTS: Overlap, kinetic, potential, dipole, and quadrupole integrals
         stored in file 35.

      Computing two-electron integrals...done
      Computed 19125 non-zero two-electron integrals.
        Stored in file 33.

	Batch   1 pq = [       0,     406] index = [             0,82621]

  ==> Reading the two-electron integrals (C1 symmetry) <==
  ==> Computing the NOCI energy <==
  Element (0,0)
 det U = -1.000000, det V = -1.000000
 det U = -1.000000, det V = -1.000000
  Corresponding orbitals:

  Alpha: 
  Beta: 
  Stilde = 1.000000

  Noncoincidences: 0a + 0b 

  Element (0,1)
 det U = 1.000000, det V = -1.000000
 det U = -1.000000, det V = -1.000000
  Corresponding orbitals:

  Alpha:  MO = 6, s = 2.275262e-16
  Beta: 
  Stilde = -0.984333

  Noncoincidences: 1a + 0b 
  ## D_BA (Symmetry 0) ##
  Irrep: 1 Size: 28 x 28

                 1                   2                   3                   4                   5

    1     0.00000000000000    -0.00000000000000    -0.00000000000000     0.00000000000000    -0.00000000000000
    2    -0.00000000000000     0.00000000000000     0.00000000000000    -0.00000000000000     0.00000000000000
    3     0.00000000000000    -0.00000000000000    -0.00000000000000     0.00000000000000    -0.00000000000000
    4    -0.00000000000000     0.00000000000000     0.00000000000000    -0.00000000000000     0.00000000000000
    5    -0.00418177482099     0.17271521012245     0.34281587253383    -0.26942135461976     0.00000000000000
    6     0.00089054290008    -0.03678110627523    -0.07300542338779     0.05737546490584    -0.00000000000000
    7     0.00000000000000    -0.00000000000000    -0.00000000000000     0.00000000000000    -0.00000000000000
    8    -0.00395743562620     0.16344957702974     0.32442486868997    -0.25496773807101     0.00000000000000
    9     0.00084276804713    -0.03480791448020    -0.06908890980217     0.05429744991246    -0.00000000000000
   10    -0.00000000000000     0.00000000000000     0.00000000000000    -0.00000000000000     0.00000000000000
   11     0.00008970138737    -0.00370483697266    -0.00735359044798     0.00577923736486    -0.00000000000000
   12    -0.00001910263873     0.00078897511300     0.00156600678990    -0.00123073551864     0.00000000000000
   13    -0.00000000000000     0.00000000000000     0.00000000000000    -0.00000000000000     0.00000000000000
   14    -0.00000000000000     0.00000000000000     0.00000000000000    -0.00000000000000     0.00000000000000
   15     0.00000000000000    -0.00000000000000    -0.00000000000000     0.00000000000000    -0.00000000000000
   16     0.00000000000000    -0.00000000000000    -0.00000000000000     0.00000000000000    -0.00000000000000
   17    -0.00000000000000     0.00000000000000     0.00000000000000    -0.00000000000000     0.00000000000000
   18     0.00000000000000    -0.00000000000000    -0.00000000000000     0.00000000000000    -0.00000000000000
   19     0.00272620561633    -0.11259744869529    -0.22349040708223     0.17564264972788    -0.00000000000000
   20    -0.00058056762014     0.02397854088152     0.04759409671307    -0.03740452830717     0.00000000000000
   21     0.00000000000000    -0.00000000000000    -0.00000000000000     0.00000000000000    -0.00000000000000
   22     0.00291748958362    -0.12049783836651    -0.23917159101835     0.18796660015317    -0.00000000000000
   23    -0.00062130309401     0.02566099300549     0.05093353214823    -0.04002901360873     0.00000000000000
   24    -0.00000000000000     0.00000000000000     0.00000000000000    -0.00000000000000     0.00000000000000
   25     0.00008236835564    -0.00340196889132    -0.00675243907576     0.00530678836232    -0.00000000000000
   26    -0.00001754101008     0.00072447689609     0.00143798672443    -0.00113012366772     0.00000000000000
   27    -0.00000000000000     0.00000000000000     0.00000000000000    -0.00000000000000     0.00000000000000
   28    -0.00000000000000     0.00000000000000     0.00000000000000    -0.00000000000000     0.00000000000000

                 6                   7                   8                   9                  10

    1     0.00000000000000     0.00000000000000    -0.00000000000000     0.00000000000000     0.00000000000000
    2    -0.00000000000000    -0.00000000000000     0.00000000000000    -0.00000000000000    -0.00000000000000
    3     0.00000000000000     0.00000000000000    -0.00000000000000     0.00000000000000     0.00000000000000
    4    -0.00000000000000    -0.00000000000000     0.00000000000000    -0.00000000000000    -0.00000000000000
    5    -0.00000000000000    -0.09679322521559     0.00000000000000    -0.00000000000000    -0.02064716947408
    6     0.00000000000000     0.02061290317658    -0.00000000000000     0.00000000000000     0.00439698237446
    7     0.00000000000000     0.00000000000000    -0.00000000000000     0.00000000000000     0.00000000000000
    8    -0.00000000000000    -0.09160057015022     0.00000000000000    -0.00000000000000    -0.01953951313846
    9     0.00000000000000     0.01950708512110    -0.00000000000000     0.00000000000000     0.00416109796469
   10    -0.00000000000000    -0.00000000000000     0.00000000000000    -0.00000000000000    -0.00000000000000
   11     0.00000000000000     0.00207626832186    -0.00000000000000     0.00000000000000     0.00044289322749
   12    -0.00000000000000    -0.00044215819642     0.00000000000000    -0.00000000000000    -0.00009431770866
   13    -0.00000000000000    -0.00000000000000     0.00000000000000    -0.00000000000000    -0.00000000000000
   14    -0.00000000000000    -0.00000000000000     0.00000000000000    -0.00000000000000    -0.00000000000000
   15     0.00000000000000     0.00000000000000    -0.00000000000000     0.00000000000000     0.00000000000000
   16     0.00000000000000     0.00000000000000    -0.00000000000000     0.00000000000000     0.00000000000000
   17    -0.00000000000000    -0.00000000000000     0.00000000000000    -0.00000000000000    -0.00000000000000
   18     0.00000000000000     0.00000000000000    -0.00000000000000     0.00000000000000     0.00000000000000
   19     0.00000000000000     0.06310197117287    -0.00000000000000     0.00000000000000     0.01346041616087
   20    -0.00000000000000    -0.01343807708794     0.00000000000000    -0.00000000000000    -0.00286650490696
   21     0.00000000000000     0.00000000000000    -0.00000000000000     0.00000000000000     0.00000000000000
   22     0.00000000000000     0.06752951519864    -0.00000000000000     0.00000000000000     0.01440486502752
   23    -0.00000000000000    -0.01438095853558     0.00000000000000    -0.00000000000000    -0.00306763296111
   24    -0.00000000000000    -0.00000000000000     0.00000000000000    -0.00000000000000    -0.00000000000000
   25     0.00000000000000     0.00190653469860    -0.00000000000000     0.00000000000000     0.00040668698602
   26    -0.00000000000000    -0.00040601204327     0.00000000000000    -0.00000000000000    -0.00008660729558
   27    -0.00000000000000    -0.00000000000000     0.00000000000000    -0.00000000000000    -0.00000000000000
   28    -0.00000000000000    -0.00000000000000     0.00000000000000    -0.00000000000000    -0.00000000000000

                11                  12                  13                  14                  15

    1    -0.00000000000000    -0.00000000000000     0.00000000000000     0.00000000000000     0.00000000000000
    2     0.00000000000000     0.00000000000000    -0.00000000000000    -0.00000000000000    -0.00000000000000
    3    -0.00000000000000    -0.00000000000000     0.00000000000000     0.00000000000000     0.00000000000000
    4     0.00000000000000     0.00000000000000    -0.00000000000000    -0.00000000000000    -0.00000000000000
    5     0.00000000000000     0.00000000000000    -0.00000000000000    -0.00000000000000    -0.00009428554160
    6    -0.00000000000000    -0.00000000000000     0.00000000000000     0.00000000000000     0.00002007887159
    7    -0.00000000000000    -0.00000000000000     0.00000000000000     0.00000000000000     0.00000000000000
    8     0.00000000000000     0.00000000000000    -0.00000000000000    -0.00000000000000    -0.00008922741595
    9    -0.00000000000000    -0.00000000000000     0.00000000000000     0.00000000000000     0.00001900170267
   10     0.00000000000000     0.00000000000000    -0.00000000000000    -0.00000000000000    -0.00000000000000
   11    -0.00000000000000    -0.00000000000000     0.00000000000000     0.00000000000000     0.00000202247712
   12     0.00000000000000     0.00000000000000    -0.00000000000000    -0.00000000000000    -0.00000043070292
   13     0.00000000000000     0.00000000000000    -0.00000000000000    -0.00000000000000    -0.00000000000000
   14     0.00000000000000     0.00000000000000    -0.00000000000000    -0.00000000000000    -0.00000000000000
   15    -0.00000000000000    -0.00000000000000     0.00000000000000     0.00000000000000     0.00000000000000
   16    -0.00000000000000    -0.00000000000000     0.00000000000000     0.00000000000000     0.00000000000000
   17     0.00000000000000     0.00000000000000    -0.00000000000000    -0.00000000000000    -0.00000000000000
   18    -0.00000000000000    -0.00000000000000     0.00000000000000     0.00000000000000     0.00000000000000
   19    -0.00000000000000    -0.00000000000000     0.00000000000000     0.00000000000000     0.00006146714829
   20     0.00000000000000     0.00000000000000    -0.00000000000000    -0.00000000000000    -0.00001308992828
   21    -0.00000000000000    -0.00000000000000     0.00000000000000     0.00000000000000     0.00000000000000
   22    -0.00000000000000    -0.00000000000000     0.00000000000000     0.00000000000000     0.00006577998512
   23     0.00000000000000     0.00000000000000    -0.00000000000000    -0.00000000000000    -0.00001400838190
   24     0.00000000000000     0.00000000000000    -0.00000000000000    -0.00000000000000    -0.00000000000000
   25    -0.00000000000000    -0.00000000000000     0.00000000000000     0.00000000000000     0.00000185714089
   26     0.00000000000000     0.00000000000000    -0.00000000000000    -0.00000000000000    -0.00000039549323
   27     0.00000000000000     0.00000000000000    -0.00000000000000    -0.00000000000000    -0.00000000000000
   28     0.00000000000000     0.00000000000000    -0.00000000000000    -0.00000000000000    -0.00000000000000

                16                  17                  18                  19                  20

    1     0.00000000000000     0.00000000000000    -0.00000000000000    -0.00000000000000     0.00000000000000
    2    -0.00000000000000    -0.00000000000000     0.00000000000000     0.00000000000000    -0.00000000000000
    3     0.00000000000000     0.00000000000000    -0.00000000000000    -0.00000000000000     0.00000000000000
    4    -0.00000000000000    -0.00000000000000     0.00000000000000     0.00000000000000    -0.00000000000000
    5    -0.02746871100726    -0.01304265677528     0.14800987409693     0.00000000000000    -0.00000000000000
    6     0.00584968502823     0.00277753965399    -0.03151990438527    -0.00000000000000     0.00000000000000
    7     0.00000000000000     0.00000000000000    -0.00000000000000    -0.00000000000000     0.00000000000000
    8    -0.02599510021442    -0.01234295886131     0.14006960533596     0.00000000000000    -0.00000000000000
    9     0.00553586764561     0.00262853330235    -0.02982895968536    -0.00000000000000     0.00000000000000
   10    -0.00000000000000    -0.00000000000000     0.00000000000000     0.00000000000000    -0.00000000000000
   11     0.00058921907375     0.00027977221583    -0.00317489382368    -0.00000000000000     0.00000000000000
   12    -0.00012547898564    -0.00005957976484     0.00067611941680     0.00000000000000    -0.00000000000000
   13    -0.00000000000000    -0.00000000000000     0.00000000000000     0.00000000000000    -0.00000000000000
   14    -0.00000000000000    -0.00000000000000     0.00000000000000     0.00000000000000    -0.00000000000000
   15     0.00000000000000     0.00000000000000    -0.00000000000000    -0.00000000000000     0.00000000000000
   16     0.00000000000000     0.00000000000000    -0.00000000000000    -0.00000000000000     0.00000000000000
   17    -0.00000000000000    -0.00000000000000     0.00000000000000     0.00000000000000    -0.00000000000000
   18     0.00000000000000     0.00000000000000    -0.00000000000000    -0.00000000000000     0.00000000000000
   19     0.01790755299532     0.00850284046242    -0.09649141030029    -0.00000000000000     0.00000000000000
   20    -0.00381355880228    -0.00181074891127     0.02054862923992     0.00000000000000    -0.00000000000000
   21     0.00000000000000     0.00000000000000    -0.00000000000000    -0.00000000000000     0.00000000000000
   22     0.01916403481049     0.00909944148442    -0.10326172126320    -0.00000000000000     0.00000000000000
   23    -0.00408113680623    -0.00193779994273     0.02199042192782     0.00000000000000    -0.00000000000000
   24    -0.00000000000000    -0.00000000000000     0.00000000000000     0.00000000000000    -0.00000000000000
   25     0.00054105078681     0.00025690101398    -0.00291534825988    -0.00000000000000     0.00000000000000
   26    -0.00011522115786    -0.00005470915671     0.00062084708174     0.00000000000000    -0.00000000000000
   27    -0.00000000000000    -0.00000000000000     0.00000000000000     0.00000000000000    -0.00000000000000
   28    -0.00000000000000    -0.00000000000000     0.00000000000000     0.00000000000000    -0.00000000000000

                21                  22                  23                  24                  25

    1    -0.00000000000000     0.00000000000000    -0.00000000000000     0.00000000000000     0.00000000000000
    2     0.00000000000000    -0.00000000000000     0.00000000000000    -0.00000000000000    -0.00000000000000
    3    -0.00000000000000     0.00000000000000    -0.00000000000000     0.00000000000000     0.00000000000000
    4     0.00000000000000    -0.00000000000000     0.00000000000000    -0.00000000000000    -0.00000000000000
    5     0.08735247021070    -0.00000000000000     0.00000000000000    -0.00900107942777    -0.00000000000000
    6    -0.01860241774853     0.00000000000000    -0.00000000000000     0.00191685294416     0.00000000000000
    7    -0.00000000000000     0.00000000000000    -0.00000000000000     0.00000000000000     0.00000000000000
    8     0.08266628224763    -0.00000000000000     0.00000000000000    -0.00851819955079    -0.00000000000000
    9    -0.01760445597450     0.00000000000000    -0.00000000000000     0.00181401975384     0.00000000000000
   10     0.00000000000000    -0.00000000000000     0.00000000000000    -0.00000000000000    -0.00000000000000
   11    -0.00187375889512     0.00000000000000    -0.00000000000000     0.00019307814196     0.00000000000000
   12     0.00039903216982    -0.00000000000000     0.00000000000000    -0.00004111755794    -0.00000000000000
   13     0.00000000000000    -0.00000000000000     0.00000000000000    -0.00000000000000    -0.00000000000000
   14     0.00000000000000    -0.00000000000000     0.00000000000000    -0.00000000000000    -0.00000000000000
   15    -0.00000000000000     0.00000000000000    -0.00000000000000     0.00000000000000     0.00000000000000
   16    -0.00000000000000     0.00000000000000    -0.00000000000000     0.00000000000000     0.00000000000000
   17     0.00000000000000    -0.00000000000000     0.00000000000000    -0.00000000000000    -0.00000000000000
   18    -0.00000000000000     0.00000000000000    -0.00000000000000     0.00000000000000     0.00000000000000
   19    -0.05694730230176     0.00000000000000    -0.00000000000000     0.00586803315326     0.00000000000000
   20     0.01212739038191    -0.00000000000000     0.00000000000000    -0.00124964530271    -0.00000000000000
   21    -0.00000000000000     0.00000000000000    -0.00000000000000     0.00000000000000     0.00000000000000
   22    -0.06094300455010     0.00000000000000    -0.00000000000000     0.00627976316181     0.00000000000000
   23     0.01297830761691    -0.00000000000000     0.00000000000000    -0.00133732655088    -0.00000000000000
   24     0.00000000000000    -0.00000000000000     0.00000000000000    -0.00000000000000    -0.00000000000000
   25    -0.00172058028952     0.00000000000000    -0.00000000000000     0.00017729412586     0.00000000000000
   26     0.00036641154209    -0.00000000000000     0.00000000000000    -0.00003775622356    -0.00000000000000
   27     0.00000000000000    -0.00000000000000     0.00000000000000    -0.00000000000000    -0.00000000000000
   28     0.00000000000000    -0.00000000000000     0.00000000000000    -0.00000000000000    -0.00000000000000

                26                  27                  28

    1    -0.00000000000000    -0.00000000000000     0.00000000000000
    2     0.00000000000000     0.00000000000000    -0.00000000000000
    3    -0.00000000000000    -0.00000000000000     0.00000000000000
    4     0.00000000000000     0.00000000000000    -0.00000000000000
    5     0.00000000000000     0.00000000000000    -0.00000000000000
    6    -0.00000000000000    -0.00000000000000     0.00000000000000
    7    -0.00000000000000    -0.00000000000000     0.00000000000000
    8     0.00000000000000     0.00000000000000    -0.00000000000000
    9    -0.00000000000000    -0.00000000000000     0.00000000000000
   10     0.00000000000000     0.00000000000000    -0.00000000000000
   11    -0.00000000000000    -0.00000000000000     0.00000000000000
   12     0.00000000000000     0.00000000000000    -0.00000000000000
   13     0.00000000000000     0.00000000000000    -0.00000000000000
   14     0.00000000000000     0.00000000000000    -0.00000000000000
   15    -0.00000000000000    -0.00000000000000     0.00000000000000
   16    -0.00000000000000    -0.00000000000000     0.00000000000000
   17     0.00000000000000     0.00000000000000    -0.00000000000000
   18    -0.00000000000000    -0.00000000000000     0.00000000000000
   19    -0.00000000000000    -0.00000000000000     0.00000000000000
   20     0.00000000000000     0.00000000000000    -0.00000000000000
   21    -0.00000000000000    -0.00000000000000     0.00000000000000
   22    -0.00000000000000    -0.00000000000000     0.00000000000000
   23     0.00000000000000     0.00000000000000    -0.00000000000000
   24     0.00000000000000     0.00000000000000    -0.00000000000000
   25    -0.00000000000000    -0.00000000000000     0.00000000000000
   26     0.00000000000000     0.00000000000000    -0.00000000000000
   27     0.00000000000000     0.00000000000000    -0.00000000000000
   28     0.00000000000000     0.00000000000000    -0.00000000000000



  ## TempMatrix (Symmetry 0) ##
  Irrep: 1 Size: 28 x 28

                 1                   2                   3                   4                   5

    1     3.55109926857783    -1.16629639049301     0.44905856255928     0.01620295634421     0.00000000000000
    2    -1.16618617321216     0.90374934824991     0.28634314339152     0.36424277908897    -0.00000000000000
    3     0.44901510817540     0.28669607449255     0.47372908204926     0.34356047499847    -0.00000000000000
    4     0.01423645621007     0.37012912560206     0.34682766116742     0.44791663758735     0.00000000000000
    5    -0.00000000000000    -0.00000000000000    -0.00000000000000     0.00000000000000     0.33343138894909
    6    -0.00000000000000     0.00000000000000     0.00000000000000     0.00000000000000    -0.00295600548368
    7     0.00938086011851     0.21533013744263     0.29195369269842     0.29403474062609     0.00000000000000
    8    -0.00000000000000    -0.00000000000000    -0.00000000000000     0.00000000000000     0.20637157991496
    9    -0.00000000000000     0.00000000000000     0.00000000000000     0.00000000000000    -0.00070155704066
   10     0.00484707542787     0.16824859716652     0.20812759963194     0.26759979026599     0.00000000000000
   11    -0.00000000000000     0.00000000000000     0.00000000000000     0.00000000000000     0.17224558225150
   12    -0.00000000000000     0.00000000000000     0.00000000000000     0.00000000000000     0.00191168679032
   13     0.00072241128464     0.00441705895056     0.00357463771460     0.00138827856457    -0.00000000000000
   14    -0.00032230353606    -0.00197066926976    -0.00159482333687    -0.00061937998466     0.00000000000000
   15     0.00282586468131     0.12216315997382     0.21666071776846     0.22583847546117    -0.00000000000000
   16     0.04200883419984     0.29747560352975     0.40253329292646     0.38298573530327     0.00000000000000
   17     0.19838106895015     0.35558307644819     0.55015657983986     0.48486311776475    -0.00000000000000
   18    -0.08043673319536    -0.36395167315695    -0.26397090600595    -0.34323181194085    -0.00000000000000
   19    -0.00000000000000     0.00000000000000    -0.00000000000000     0.00000000000000     0.26738350605636
   20    -0.00000000000000     0.00000000000000     0.00000000000000     0.00000000000000     0.00005697872526
   21    -0.42546654289846    -0.28137582291676    -0.34855127841527    -0.29874541468431     0.00000000000000
   22    -0.00000000000000     0.00000000000000    -0.00000000000000     0.00000000000000     0.25993671104678
   23    -0.00000000000000     0.00000000000000     0.00000000000000     0.00000000000000     0.00069141403724
   24     0.14988361126139     0.11872471897208     0.11360396276669     0.14840906568059    -0.00000000000000
   25     0.00000000000000    -0.00000000000000     0.00000000000000    -0.00000000000000    -0.13142114919211
   26     0.00000000000000    -0.00000000000000    -0.00000000000000    -0.00000000000000    -0.00039901012216
   27    -0.00002185826808    -0.00044497886675    -0.00023089163401    -0.00014674453197     0.00000000000000
   28     0.00000975205848     0.00019852716212     0.00010301221987     0.00006547002041     0.00000000000000

                 6                   7                   8                   9                  10

    1    -0.00000000000000     0.00953123641487     0.00000000000000     0.00000000000000     0.00535908583876
    2     0.00000000000000     0.21222231774156    -0.00000000000000     0.00000000000000     0.17927161432325
    3     0.00000000000000     0.28918237206981    -0.00000000000000     0.00000000000000     0.21527822475244
    4     0.00000000000000     0.29192367774395     0.00000000000000     0.00000000000000     0.27246807949358
    5    -0.00295600548368     0.00000000000000     0.21058887427043    -0.00199004310875     0.00000000000000
    6     0.32018020501889     0.00000000000000    -0.00199004310875     0.20166790730722     0.00000000000000
    7    -0.00000000000000     0.37744337879775     0.00000000000000    -0.00000000000000     0.27918852594842
    8    -0.00070155704066     0.00000000000000     0.18077677851852    -0.00035516407616     0.00000000000000
    9     0.20322663940839     0.00000000000000    -0.00035516407616     0.17918464869178     0.00000000000000
   10     0.00000000000000     0.28135719780759     0.00000000000000     0.00000000000000     0.31987070054092
   11     0.00191168679032     0.00000000000000     0.15166989041820     0.00161983258114     0.00000000000000
   12     0.18081529344294     0.00000000000000     0.00161983258114     0.15893127730916     0.00000000000000
   13    -0.00000000000000    -0.00024554475558    -0.00000000000000    -0.00000000000000    -0.00053923377141
   14    -0.00000000000000     0.00010954970481     0.00000000000000    -0.00000000000000     0.00024057895410
   15     0.00000000000000     0.34304646316575    -0.00000000000000     0.00000000000000     0.48168628664849
   16    -0.00000000000000     0.49366627321114     0.00000000000000    -0.00000000000000     0.32822079392960
   17     0.00000000000000     0.61619166405746     0.00000000000000     0.00000000000000     0.47028288648888
   18    -0.00000000000000    -0.01640609327975    -0.00000000000000    -0.00000000000000    -0.17567861925846
   19     0.00005697872526    -0.00000000000000     0.28135885032433     0.00003302649808    -0.00000000000000
   20     0.26763893033508     0.00000000000000     0.00003302649808     0.28150690153840     0.00000000000000
   21    -0.00000000000000    -0.03017394397045    -0.00000000000000    -0.00000000000000    -0.09071218712986
   22     0.00069141403724     0.00000000000000     0.26072975450352     0.00088393823082     0.00000000000000
   23     0.26303618248888     0.00000000000000     0.00088393823082     0.26469227356654     0.00000000000000
   24     0.00000000000000     0.01641197383180    -0.00000000000000     0.00000000000000     0.05052694764668
   25    -0.00039901012216    -0.00000000000000    -0.07840546755781    -0.00041834974194    -0.00000000000000
   26    -0.13320983211164    -0.00000000000000    -0.00041834974194    -0.08028084614156    -0.00000000000000
   27    -0.00000000000000     0.00041621879674     0.00000000000000    -0.00000000000000     0.00026747906752
   28    -0.00000000000000    -0.00018569586719     0.00000000000000    -0.00000000000000    -0.00011933569023

                11                  12                  13                  14                  15

    1    -0.00000000000000     0.00000000000000     0.00045585508763    -0.00020337958418     0.00283345951884
    2     0.00000000000000     0.00000000000000     0.00157842278061    -0.00070421275859     0.12212379434443
    3    -0.00000000000000     0.00000000000000     0.00110868410423    -0.00049463901626     0.21642428222535
    4     0.00000000000000     0.00000000000000    -0.00080827194071     0.00036061023704     0.22577054778058
    5     0.17962305357223    -0.00107719736159    -0.00000000000000     0.00000000000000    -0.00000000000000
    6    -0.00107719736159     0.17479419231119    -0.00000000000000    -0.00000000000000    -0.00000000000000
    7    -0.00000000000000     0.00000000000000    -0.00091054262068     0.00040623826430     0.34274599501201
    8     0.15473412925079     0.00004055878752    -0.00000000000000     0.00000000000000    -0.00000000000000
    9     0.00004055878752     0.15491594621845    -0.00000000000000    -0.00000000000000    -0.00000000000000
   10     0.00000000000000     0.00000000000000    -0.00098211107005     0.00043816850237     0.48135322426465
   11     0.21672351148217     0.00089362681901     0.00000000000000     0.00000000000000    -0.00000000000000
   12     0.00089362681901     0.22072946255669    -0.00000000000000     0.00000000000000    -0.00000000000000
   13     0.00000000000000    -0.00000000000000     0.08129239137674    -0.00000000000000     0.00005984689951
   14     0.00000000000000    -0.00000000000000     0.00000000000000     0.08129239137674    -0.00002670067279
   15    -0.00000000000000    -0.00000000000000     0.00003892634546    -0.00001736697509     4.88159709225353
   16    -0.00000000000000     0.00000000000000    -0.00014145591906     0.00006311050766    -1.57063642956049
   17    -0.00000000000000     0.00000000000000    -0.00015572037868     0.00006947459121     0.67207886275571
   18    -0.00000000000000    -0.00000000000000     0.00011583469856    -0.00005167960930    -0.00516408669679
   19     0.34035351427573     0.00000413247888     0.00000000000000     0.00000000000000    -0.00000000000000
   20     0.00000413247888     0.34037203935564    -0.00000000000000    -0.00000000000000    -0.00000000000000
   21    -0.00000000000000    -0.00000000000000    -0.00074019116520     0.00033023602341    -0.00481802844862
   22     0.27026509040424     0.00085431642591    -0.00000000000000     0.00000000000000    -0.00000000000000
   23     0.00085431642591     0.27409482081469    -0.00000000000000    -0.00000000000000    -0.00000000000000
   24     0.00000000000000     0.00000000000000     0.00027502320953    -0.00012270150649     0.00099705267235
   25    -0.13783801838475    -0.00046321891209    -0.00000000000000    -0.00000000000000     0.00000000000000
   26    -0.00046321891209    -0.13991453652314     0.00000000000000    -0.00000000000000     0.00000000000000
   27     0.00000000000000    -0.00000000000000     0.05473145391647     0.00000000000000     0.00022907828582
   28     0.00000000000000    -0.00000000000000    -0.00000000000000     0.05473145391647    -0.00010220319522

                16                  17                  18                  19                  20

    1     0.04211588855032     0.19853247621267    -0.08124620621123    -0.00000000000000     0.00000000000000
    2     0.29989784276771     0.35521539369610    -0.37253380691576     0.00000000000000     0.00000000000000
    3     0.40229721933048     0.54891081881208    -0.27013007168274    -0.00000000000000     0.00000000000000
    4     0.38334456697857     0.48488495115020    -0.35312818892525     0.00000000000000     0.00000000000000
    5     0.00000000000000     0.00000000000000     0.00000000000000     0.26520676089012    -0.00206366992517
    6     0.00000000000000     0.00000000000000    -0.00000000000000    -0.00206366992517     0.25595573957077
    7     0.49082610783465     0.61606176761595    -0.01742506727683    -0.00000000000000    -0.00000000000000
    8     0.00000000000000     0.00000000000000    -0.00000000000000     0.27223419670758     0.00001112413919
    9     0.00000000000000     0.00000000000000    -0.00000000000000     0.00001112413919     0.27228406400834
   10     0.32990675546384     0.47075868386638    -0.16317201602102    -0.00000000000000     0.00000000000000
   11     0.00000000000000     0.00000000000000    -0.00000000000000     0.32833568324956     0.00204026179154
   12     0.00000000000000     0.00000000000000    -0.00000000000000     0.00204026179154     0.33748177056730
   13     0.00011577353068     0.00100573948356    -0.00327330823052    -0.00000000000000    -0.00000000000000
   14    -0.00005165231927    -0.00044871031060     0.00146038529541     0.00000000000000    -0.00000000000000
   15    -1.57055101623686     0.67239486972131    -0.00631102361089    -0.00000000000000     0.00000000000000
   16     1.69470369742809     0.80649177873396     0.03019090297082    -0.00000000000000    -0.00000000000000
   17     0.80328754173598     1.05785819006148    -0.02882415990556    -0.00000000000000    -0.00000000000000
   18     0.01969015158395    -0.03105056271569     0.96421617723788    -0.00000000000000    -0.00000000000000
   19     0.00000000000000    -0.00000000000000    -0.00000000000000     0.95121545227024    -0.00049520415817
   20     0.00000000000000     0.00000000000000    -0.00000000000000    -0.00049520415817     0.94899555064314
   21    -0.02642881540430    -0.10346297246167     0.62306758300416    -0.00000000000000    -0.00000000000000
   22     0.00000000000000     0.00000000000000    -0.00000000000000     0.56365569514905     0.00166611172573
   23     0.00000000000000     0.00000000000000    -0.00000000000000     0.00166611172573     0.57112454222925
   24     0.04884326166877     0.06805125396409    -0.11537490800194    -0.00000000000000     0.00000000000000
   25    -0.00000000000000    -0.00000000000000    -0.00000000000000    -0.06591144766872    -0.00106741153044
   26    -0.00000000000000     0.00000000000000     0.00000000000000    -0.00106741153044    -0.07069644099742
   27     0.00121302359677     0.00080938960055     0.00173990427329     0.00000000000000    -0.00000000000000
   28    -0.00054119004351    -0.00036110888058    -0.00077625766875     0.00000000000000    -0.00000000000000

                21                  22                  23                  24                  25

    1    -0.42586198939854    -0.00000000000000     0.00000000000000     0.15064086803537     0.00000000000000
    2    -0.28158518582212     0.00000000000000     0.00000000000000     0.11925396275127     0.00000000000000
    3    -0.34926844717151    -0.00000000000000     0.00000000000000     0.11634303271188     0.00000000000000
    4    -0.30387313715120     0.00000000000000     0.00000000000000     0.15230677214254    -0.00000000000000
    5     0.00000000000000     0.26570417886336    -0.00222378487635    -0.00000000000000    -0.13626988084575
    6     0.00000000000000    -0.00222378487635     0.25573539410285    -0.00000000000000     0.00086211839601
    7    -0.03269506520519     0.00000000000000    -0.00000000000000     0.02230630981498    -0.00000000000000
    8     0.00000000000000     0.26012260829695    -0.00009619022921    -0.00000000000000    -0.08126382219768
    9     0.00000000000000    -0.00009619022921     0.25969140665454     0.00000000000000     0.00017496569829
   10    -0.07752155423107     0.00000000000000     0.00000000000000     0.04819230205733    -0.00000000000000
   11    -0.00000000000000     0.26623202245414     0.00205554233714    -0.00000000000000    -0.13890563923444
   12    -0.00000000000000     0.00205554233714     0.27544660941484     0.00000000000000    -0.00060869189675
   13    -0.00426013672231    -0.00000000000000    -0.00000000000000     0.00134454196368     0.00000000000000
   14     0.00190065847380     0.00000000000000    -0.00000000000000    -0.00059986691583    -0.00000000000000
   15    -0.00508005923940    -0.00000000000000     0.00000000000000     0.00064646163998    -0.00000000000000
   16    -0.01994804287440     0.00000000000000    -0.00000000000000     0.05455030679345    -0.00000000000000
   17    -0.10216422052496    -0.00000000000000    -0.00000000000000     0.07550651619148    -0.00000000000000
   18     0.61261159144767    -0.00000000000000    -0.00000000000000    -0.10644208827345    -0.00000000000000
   19    -0.00000000000000     0.57882424382790    -0.00007841969106    -0.00000000000000    -0.07271881918280
   20     0.00000000000000    -0.00007841969106     0.57847270396924     0.00000000000000    -0.00023921334564
   21     0.59646988346437    -0.00000000000000    -0.00000000000000    -0.12304152960582    -0.00000000000000
   22    -0.00000000000000     0.47057152092806     0.00159855658447    -0.00000000000000    -0.07257566215277
   23     0.00000000000000     0.00159855658447     0.47773753176281     0.00000000000000    -0.00026790438866
   24    -0.12622402854449    -0.00000000000000     0.00000000000000     0.32592100269365    -0.00000000000000
   25    -0.00000000000000    -0.06830960326238    -0.00077286325025     0.00000000000000     0.30266552676230
   26     0.00000000000000    -0.00077286325025    -0.07177419530679     0.00000000000000     0.00012593785633
   27     0.00129402086843     0.00000000000000    -0.00000000000000     0.00019728626910    -0.00000000000000
   28    -0.00057732694727     0.00000000000000    -0.00000000000000    -0.00008801919834    -0.00000000000000

                26                  27                  28

    1    -0.00000000000000     0.00014539303675    -0.00006486705130
    2    -0.00000000000000     0.00019223910660    -0.00008576740860
    3    -0.00000000000000    -0.00026014326076     0.00011606282267
    4    -0.00000000000000    -0.00046176409692     0.00020601588656
    5     0.00086211839601     0.00000000000000     0.00000000000000
    6    -0.13240517575701    -0.00000000000000    -0.00000000000000
    7    -0.00000000000000    -0.00095973094164     0.00042818361609
    8     0.00017496569829     0.00000000000000     0.00000000000000
    9    -0.08047948581455    -0.00000000000000    -0.00000000000000
   10    -0.00000000000000    -0.00042399404007     0.00018916478921
   11    -0.00060869189675     0.00000000000000     0.00000000000000
   12    -0.14163428379387    -0.00000000000000     0.00000000000000
   13     0.00000000000000     0.05389542338376    -0.00000000000000
   14     0.00000000000000     0.00000000000000     0.05389542338376
   15     0.00000000000000     0.00032840395448    -0.00014651730674
   16    -0.00000000000000     0.00003314115135    -0.00001478591281
   17    -0.00000000000000    -0.00075711429297     0.00033778627081
   18     0.00000000000000     0.00061908188230    -0.00027620316020
[...]
   24     0.14967711810888     0.12443805728440     0.11785079797670     0.14328236859268    -0.00000000000000
   25     0.00000000000000    -0.00000000000001    -0.00000000000000     0.00000000000001    -0.13287682789670
   26     0.00000000000000     0.00000000000000     0.00000000000000    -0.00000000000000    -0.00004836681711
   27     0.00000045371659    -0.00011244514539     0.00001178115911    -0.00007523977684     0.00000000000000
   28    -0.00000020242550     0.00005016736137    -0.00000525615992     0.00003356819951    -0.00000000000000

                 6                   7                   8                   9                  10

    1    -0.00000000000000     0.00974547582023     0.00000000000000    -0.00000000000000     0.00454241927204
    2    -0.00000000000000     0.20642470680189     0.00000000000000    -0.00000000000000     0.15826867723952
    3    -0.00000000000000     0.28490653280683     0.00000000000000    -0.00000000000000     0.20118024597099
    4    -0.00000000000000     0.28943160868434     0.00000000000000    -0.00000000000000     0.25922639529431
    5    -0.00374007660496    -0.00000000000001     0.21329168584679    -0.00332954234818    -0.00000000000001
    6     0.32209178387678     0.00000000000000    -0.00332954234818     0.19836601053842     0.00000000000000
    7    -0.00000000000000     0.37766082377560     0.00000000000000    -0.00000000000000     0.28030410763558
    8    -0.00144264185998    -0.00000000000001     0.18215314390184    -0.00170142376468    -0.00000000000001
    9     0.20252763320653     0.00000000000000    -0.00170142376468     0.17452599998296     0.00000000000000
   10     0.00000000000000     0.28071343083690    -0.00000000000000     0.00000000000000     0.31814616089386
   11     0.00120037199717    -0.00000000000001     0.15165839820701     0.00057834539566    -0.00000000000001
   12     0.17839343380978     0.00000000000000     0.00057834539566     0.15425100544519     0.00000000000000
   13     0.00000000000000     0.00008963333418     0.00000000000000     0.00000000000000    -0.00142171077606
   14     0.00000000000000    -0.00003998987996    -0.00000000000000     0.00000000000000     0.00063429575386
   15    -0.00000000000000     0.34259904875670     0.00000000000000    -0.00000000000000     0.48077618366985
   16    -0.00000000000000     0.49374165581743     0.00000000000000    -0.00000000000000     0.33035935609257
   17    -0.00000000000000     0.61479938429467     0.00000000000000    -0.00000000000000     0.46865068744355
   18     0.00000000000000    -0.01098103454637    -0.00000000000000     0.00000000000000    -0.14773748021832
   19    -0.00109461924087    -0.00000000000001     0.28069976867867    -0.00175196980694    -0.00000000000002
   20     0.26264878583304     0.00000000000000    -0.00175196980694     0.27284603691798     0.00000000000000
   21     0.00000000000000    -0.02519294922890    -0.00000000000000     0.00000000000000    -0.06599451245267
   22    -0.00042735165633    -0.00000000000001     0.26057389792831    -0.00100826011999    -0.00000000000002
   23     0.25925428222102     0.00000000000000    -0.00100826011999     0.25605406859334     0.00000000000000
   24    -0.00000000000000     0.01144989100958    -0.00000000000000     0.00000000000000     0.03791636589138
   25    -0.00004836681711     0.00000000000001    -0.07945051400308     0.00007814277692     0.00000000000001
   26    -0.13309364670616    -0.00000000000000     0.00007814277692    -0.07910021549533    -0.00000000000000
   27     0.00000000000000    -0.00016420341643     0.00000000000000     0.00000000000000    -0.00112923949143
   28     0.00000000000000     0.00007325929547    -0.00000000000000     0.00000000000000     0.00050380979490

                11                  12                  13                  14                  15

    1    -0.00000000000000     0.00000000000000     0.00015958320091    -0.00007119798797     0.00281972183877
    2    -0.00000000000000     0.00000000000000    -0.00065724238083     0.00029322845295     0.12152890435590
    3    -0.00000000000000     0.00000000000000    -0.00011623761914     0.00005185937217     0.21602741307976
    4    -0.00000000000000    -0.00000000000000    -0.00168191313361     0.00075038494254     0.22518581709058
    5     0.17918008894686    -0.00216952263047     0.00000000000000    -0.00000000000000    -0.00000000000000
    6    -0.00216952263047     0.16945455102897     0.00000000000000     0.00000000000000     0.00000000000000
    7    -0.00000000000000    -0.00000000000000     0.00005182111014    -0.00002311996974     0.34243429827851
    8     0.15444329648206    -0.00086563866397     0.00000000000000    -0.00000000000000    -0.00000000000000
    9    -0.00086563866398     0.15056281073306     0.00000000000000     0.00000000000000     0.00000000000000
   10    -0.00000000000000    -0.00000000000000    -0.00100868569033     0.00045002475969     0.48098940011887
   11     0.21731146593669     0.00018845054542    -0.00000000000000     0.00000000000000    -0.00000000000000
   12     0.00018845054542     0.21815625220416     0.00000000000000     0.00000000000000     0.00000000000000
   13    -0.00000000000000    -0.00000000000000     0.08285416399321     0.00002591484529    -0.00009226311925
   14     0.00000000000000    -0.00000000000000     0.00002591484529     0.08290068763967     0.00004116315763
   15    -0.00000000000000     0.00000000000000     0.00005033354148    -0.00002245629152     4.88179547423248
   16    -0.00000000000000     0.00000000000000     0.00063027596850    -0.00028119739775    -1.57184077346802
   17    -0.00000000000000     0.00000000000000     0.00050960301663    -0.00022735920347     0.67128004730646
   18     0.00000000000000    -0.00000000000000     0.00286224064556    -0.00127698763951    -0.00639490540678
   19     0.34092574517192    -0.00102870855657    -0.00000000000000     0.00000000000000    -0.00000000000000
   20    -0.00102870855657     0.33631424956783     0.00000000000000     0.00000000000000     0.00000000000000
   21     0.00000000000000    -0.00000000000000     0.00189117357590    -0.00084374641396    -0.00506456215942
   22     0.27053965609944    -0.00033233229154     0.00000000000000    -0.00000000000000    -0.00000000000000
   23    -0.00033233229154     0.26904987661648     0.00000000000000     0.00000000000000     0.00000000000000
   24    -0.00000000000000    -0.00000000000000    -0.00109160449515     0.00048701895478    -0.00190076504069
   25    -0.13698349771956     0.00001997768901     0.00000000000000     0.00000000000000     0.00000000000000
   26     0.00001997768901    -0.13689394171803    -0.00000000000000    -0.00000000000000    -0.00000000000000
   27    -0.00000000000000    -0.00000000000000     0.05417762930695    -0.00000314837385    -0.00091427382820
   28     0.00000000000000    -0.00000000000000    -0.00000314837385     0.05417197718631     0.00040790294120

                16                  17                  18                  19                  20

    1     0.04184505231816     0.19835857978731    -0.08068235908578    -0.00000000000000     0.00000000000000
    2     0.29223695423642     0.35615724159587    -0.35431137849144    -0.00000000000000     0.00000000000000
    3     0.39788570427628     0.54933156426818    -0.25956655140509    -0.00000000000000     0.00000000000000
    4     0.37720471271700     0.48341826976432    -0.33881007681729    -0.00000000000000     0.00000000000000
    5    -0.00000000000001     0.00000000000000     0.00000000000002     0.26487895299853    -0.00062140113011
    6     0.00000000000000    -0.00000000000000    -0.00000000000000    -0.00062140113011     0.26209333547684
    7     0.49153791840075     0.61422056830194    -0.02118566136420    -0.00000000000000     0.00000000000000
    8    -0.00000000000000     0.00000000000000     0.00000000000001     0.27236243255548     0.00161999690808
    9     0.00000000000000    -0.00000000000000    -0.00000000000000     0.00161999690808     0.27962455609139
   10     0.32801505566223     0.46869782926541    -0.15863747848528    -0.00000000000000     0.00000000000000
   11    -0.00000000000001    -0.00000000000000     0.00000000000002     0.32805834107513     0.00387059288543
   12     0.00000000000000     0.00000000000000    -0.00000000000000     0.00387059288543     0.34540943819822
   13    -0.00026187463964     0.00139752028642    -0.00333274492855    -0.00000000000000    -0.00000000000000
   14     0.00011683527674    -0.00062350317556     0.00148690295696     0.00000000000000    -0.00000000000000
   15    -1.57157054640780     0.67179573358490    -0.00520641477815    -0.00000000000000     0.00000000000000
   16     1.69661758390947     0.80445394251754     0.02023066244499    -0.00000000000000     0.00000000000000
   17     0.80343876415184     1.05557505449767    -0.03464927465084    -0.00000000000000     0.00000000000000
   18     0.03228654428597    -0.03152013250475     0.91659525571568     0.00000000000000    -0.00000000000000
   19    -0.00000000000001     0.00000000000000     0.00000000000004     0.95287652735454     0.00515611122793
   20     0.00000000000000    -0.00000000000000    -0.00000000000001     0.00515611122793     0.97599034721143
   21    -0.01751456385007    -0.10594216937683     0.59175886536612     0.00000000000000    -0.00000000000000
   22    -0.00000000000001     0.00000000000000     0.00000000000003     0.56445262519056     0.00504745130514
   23     0.00000000000000    -0.00000000000000    -0.00000000000001     0.00504745130514     0.58707934425192
   24     0.03722708991038     0.06199216153780    -0.10903429401514    -0.00000000000000    -0.00000000000000
   25     0.00000000000001     0.00000000000000    -0.00000000000001    -0.06469206447796    -0.00116094418111
   26    -0.00000000000000    -0.00000000000000     0.00000000000000    -0.00116094418111    -0.06989634605372
   27    -0.00184049464906    -0.00087194794114     0.00045388592073    -0.00000000000000    -0.00000000000000
   28     0.00082113602890     0.00038901926184    -0.00020250104107     0.00000000000000    -0.00000000000000

                21                  22                  23                  24                  25

    1    -0.42572030055243     0.00000000000000    -0.00000000000000     0.15022332990614     0.00000000000000
    2    -0.28803753551322     0.00000000000000    -0.00000000000000     0.11768433156439     0.00000000000000
    3    -0.35448509079739     0.00000000000000    -0.00000000000000     0.11221716698770     0.00000000000000
    4    -0.30491362774614     0.00000000000000    -0.00000000000000     0.14786509887912     0.00000000000000
    5    -0.00000000000001     0.26671006229081    -0.00294662009283    -0.00000000000000    -0.13551518396250
    6     0.00000000000000    -0.00294662009283     0.25350095119883     0.00000000000000     0.00182143875308
    7    -0.03355736320044     0.00000000000000    -0.00000000000000     0.01365639478316     0.00000000000000
    8    -0.00000000000000     0.26043716687392    -0.00076894992243    -0.00000000000000    -0.08111022933109
    9     0.00000000000000    -0.00076894992243     0.25699011749884    -0.00000000000000     0.00118224593479
   10    -0.07583367333707    -0.00000000000000     0.00000000000000     0.04164092137096     0.00000000000000
   11     0.00000000000000     0.26611225631632     0.00157944168587    -0.00000000000000    -0.13776183607856
   12     0.00000000000000     0.00157944168587     0.27319257886715     0.00000000000000     0.00037477129839
   13    -0.00521352770603     0.00000000000000     0.00000000000000     0.00170060702434     0.00000000000000
   14     0.00232601351993    -0.00000000000000     0.00000000000000    -0.00075872521520    -0.00000000000000
   15    -0.00506118427688     0.00000000000000    -0.00000000000000    -0.00168940724702     0.00000000000000
   16    -0.02336735487394     0.00000000000000    -0.00000000000000     0.03818749719129     0.00000000000001
   17    -0.10670239865259     0.00000000000000    -0.00000000000000     0.06071625234782     0.00000000000001
   18     0.60771264187158    -0.00000000000000     0.00000000000000    -0.11434147238531    -0.00000000000000
   19     0.00000000000000     0.57835316819338    -0.00033279698023    -0.00000000000000    -0.07427908328802
   20    -0.00000000000000    -0.00033279698023     0.57686130560353    -0.00000000000000     0.00228239341299
   21     0.59716883008309    -0.00000000000000     0.00000000000000    -0.12912134959649    -0.00000000000000
   22    -0.00000000000000     0.46997948591063     0.00084010088761    -0.00000000000000    -0.07350931984242
   23     0.00000000000000     0.00084010088761     0.47374549089374    -0.00000000000000     0.00165194503831
   24    -0.13034101948382    -0.00000000000000    -0.00000000000000     0.32093718047470    -0.00000000000000
   25     0.00000000000000    -0.06890044897341    -0.00030097245488     0.00000000000000     0.29746203685921
   26    -0.00000000000000    -0.00030097245488    -0.07024964855357    -0.00000000000000     0.00030387970866
   27    -0.00001306356897    -0.00000000000000     0.00000000000000     0.00170268931486     0.00000000000000
   28     0.00000582830662     0.00000000000000     0.00000000000000    -0.00075965422837    -0.00000000000000

                26                  27                  28

    1     0.00000000000000     0.00014088234467    -0.00006285460765
    2     0.00000000000000    -0.00010443841414     0.00004659516109
    3     0.00000000000000    -0.00153999862491     0.00068706983529
    4     0.00000000000000    -0.00142562025327     0.00063603996572
    5     0.00182143875308    -0.00000000000000     0.00000000000000
    6    -0.12735003675023     0.00000000000000     0.00000000000000
    7    -0.00000000000000    -0.00362498847361     0.00161728730999
    8     0.00118224593479    -0.00000000000000     0.00000000000000
    9    -0.07581045623557     0.00000000000000     0.00000000000000
   10    -0.00000000000000    -0.00231457929262     0.00103264872293
   11     0.00037477129839    -0.00000000000000     0.00000000000000
   12    -0.13608181097911    -0.00000000000000     0.00000000000000
   13     0.00000000000000     0.05395726591901    -0.00000392170066
   14     0.00000000000000    -0.00000392170066     0.05395022548281
   15    -0.00000000000000    -0.00062132921897     0.00027720580865
   16    -0.00000000000000    -0.00496662539062     0.00221585814030
   17    -0.00000000000000    -0.00523611911846     0.00233609267051
   18    -0.00000000000000    -0.00143219157317     0.00063897175774
   19     0.00228239341299    -0.00000000000000     0.00000000000000
   20    -0.06404756812896    -0.00000000000000     0.00000000000000
   21    -0.00000000000000    -0.00145382938838     0.00064862546125
   22     0.00165194503831    -0.00000000000000     0.00000000000000
   23    -0.06610397920080     0.00000000000000     0.00000000000000
   24     0.00000000000000     0.00183189031366    -0.00081729720774
   25     0.00030387970866     0.00000000000000    -0.00000000000000
   26     0.29882426907911     0.00000000000000     0.00000000000000
   27     0.00000000000000     0.27240863685574     0.00000506296288
   28     0.00000000000000     0.00000506296288     0.27241772614385




  Element (3,2)
 det U = -1.000000, det V = 1.000000
 det U = 1.000000, det V = -1.000000
  Corresponding orbitals:

  Alpha:  MO = 6, s = 7.645523e-16
  Beta:  MO = 6, s = 5.187807e-14
  Stilde = 0.985950

  Noncoincidences: 1a + 1b 

  Element (3,3)
 det U = -1.000000, det V = -1.000000
 det U = -1.000000, det V = -1.000000
  Corresponding orbitals:

  Alpha: 
  Beta: 
  Stilde = 1.000000

  Noncoincidences: 0a + 0b 

  Element (3,4)
 det U = 1.000000, det V = 1.000000
 det U = -1.000000, det V = -1.000000
  Corresponding orbitals:

  Alpha:  MO = 6, s = 8.897979e-15
  Beta:  MO = 6, s = 9.020557e-15
  Stilde = 0.985149

  Noncoincidences: 1a + 1b 

  Element (4,0)
 det U = -1.000000, det V = 1.000000
 det U = -1.000000, det V = -1.000000
  Corresponding orbitals:

  Alpha: 
  Beta:  MO = 6, s = 1.481919e-16
  Stilde = -0.991299

  Noncoincidences: 0a + 1b 

  Element (4,1)
 det U = 1.000000, det V = -1.000000
 det U = -1.000000, det V = 1.000000
  Corresponding orbitals:

  Alpha:  MO = 6, s = 5.187807e-14
  Beta:  MO = 6, s = 7.645523e-16
  Stilde = 0.985950

  Noncoincidences: 1a + 1b 

  Element (4,2)
 det U = 1.000000, det V = -1.000000
 det U = -1.000000, det V = -1.000000
  Corresponding orbitals:

  Alpha: 
  Beta:  MO = 6, s = 3.584872e-17
  Stilde = -0.989793

  Noncoincidences: 0a + 1b 

  Element (4,3)
 det U = -1.000000, det V = -1.000000
 det U = 1.000000, det V = 1.000000
  Corresponding orbitals:

  Alpha:  MO = 6, s = 9.020557e-15
  Beta:  MO = 6, s = 8.897979e-15
  Stilde = 0.985149

  Noncoincidences: 1a + 1b 

  Element (4,4)
 det U = -1.000000, det V = -1.000000
 det U = -1.000000, det V = -1.000000
  Corresponding orbitals:

  Alpha: 
  Beta: 
  Stilde = 1.000000

  Noncoincidences: 0a + 0b 
  ## Overlap matrix (Symmetry 0) ##
  Irrep: 1 Size: 5 x 5

                 1                   2                   3                   4                   5

    1     0.99999999999996     0.00000000000000     0.00000000000000     0.00000000000000     0.00000000000000
    2     0.00000000000000     0.99999999999998     0.00000000000000     0.00000000000000     0.00000000000000
    3     0.00000000000000     0.00000000000000     0.99999999999998     0.00000000000000     0.00000000000000
    4     0.00000000000000     0.00000000000000     0.00000000000000     0.99999999999997     0.00000000000000
    5     0.00000000000000     0.00000000000000     0.00000000000000     0.00000000000000     0.99999999999997



  ## Hamiltonian (Symmetry 0) ##
  Irrep: 1 Size: 5 x 5

                 1                   2                   3                   4                   5

    1  -112.74929280373617    -0.00000000000000    -0.00000000000000     0.00000000000000     0.00000000000000
    2    -0.00000000000000  -112.48239093101984     0.05315306987597     0.00000000000000    -0.00000000000000
    3    -0.00000000000000     0.05315306987597  -112.48239093101984    -0.00000000000000     0.00000000000000
    4     0.00000000000000     0.00000000000000    -0.00000000000000  -112.48058459213411     0.05171974790228
    5     0.00000000000000    -0.00000000000000     0.00000000000000     0.05171974790228  -112.48058459213408



  ## S2 (Symmetry 0) ##
  Irrep: 1 Size: 5 x 5

                 1                   2                   3                   4                   5

    1     0.00000000000000     0.00000000000000     0.00000000000000     0.00000000000000     0.00000000000000
    2     0.00000000000000     0.00000000000000     0.00000000000000     0.00000000000000     0.00000000000000
    3     0.00000000000000     0.00000000000000     0.00000000000000     0.00000000000000     0.00000000000000
    4     0.00000000000000     0.00000000000000     0.00000000000000     0.00000000000000     0.00000000000000
    5     0.00000000000000     0.00000000000000     0.00000000000000     0.00000000000000     0.00000000000000




       ==> NOCI Excited State Information <==

    ----------------------------------------------------
      State       Energy (Eh)    Omega (eV)   Osc. Str.
    ----------------------------------------------------
     @NOCI-0          -112.749292803736      0.0000      0.0000
     @NOCI-1          -112.535544000896      5.8164      0.0000
     @NOCI-2          -112.532304340036      5.9046      0.0000
     @NOCI-3          -112.429237861144      8.7091      0.0000
     @NOCI-4          -112.428864844232      8.7193      0.0000
    ----------------------------------------------------

*** PSI4 exiting successfully. Buy a developer a beer!
