    -----------------------------------------------------------------------
          PSI4: An Open-Source Ab Initio Electronic Structure Package
                              PSI 4.0 Driver

               Git: Rev {master} 239716821edc564e7d72ede23ba5dcc9ca686c8d

    J. M. Turney, A. C. Simmonett, R. M. Parrish, E. G. Hohenstein,
    F. A. Evangelista, J. T. Fermann, B. J. Mintz, L. A. Burns, J. J. Wilke,
    M. L. Abrams, N. J. Russ, M. L. Leininger, C. L. Janssen, E. T. Seidl,
    W. D. Allen, H. F. Schaefer, R. A. King, E. F. Valeev, C. D. Sherrill,
    and T. D. Crawford, WIREs Comput. Mol. Sci. 2, 556-565 (2012)
    (doi: 10.1002/wcms.93)

                         Additional Contributions by
    A. E. DePrince, M. Saitow, U. Bozkaya, A. Yu. Sokolov
    -----------------------------------------------------------------------

    Process ID:   8900
    PSI4DATADIR: /home/prakash/psi4/lib
    Memory level set to 256.000 MB

  ==> Input File <==

--------------------------------------------------------------------------
#! OCDFT CPH algorithm test, B3LYP computation on ethene
sys.path.insert(0, '/home/prakash')
import cdft

HF_NOCI_Energy =  -112.74929280378284

molecule CO {
symmetry c1
C       0.0000  0.0000  0.0000
O       0.0000  0.0000  1.1282
}


set {
  basis cc-pvdz
  df_scf_guess false
  scf_type pk
  e_convergence 10
  d_convergence 1
  maxiter 100
}

set reference uhf
set cdft {
  OCC_FROZEN [1,0,0,0,0,0,0,0]
  VIR_FROZEN [2,0,0,0,0,0,0,0]
}

energy('fasnocis')

compare_values(HF_NOCI_Energy, get_variable("HF NOCI energy"),8, "NOCI HF energy") #TEST
#compare_values(refocdft_singlet_spin, get_variable("OCDFT SINGLET ENERGY"),8, "OCDFT singlet energy") #TEST
#compare_values(refocdft_triplet_spin, get_variable("OCDFT TRIPLET ENERGY"),8, "OCDFT triplet energy") #TEST
--------------------------------------------------------------------------

*** tstart() called on master
*** at Fri Sep  4 12:55:38 2015

/home/prakash/cdft/cdft.so loaded.
Reading options from the CDFT block
Calling plugin cdft.so.

  ==> Frozen-active-space NOCI Singles <==
    There are an even number of electrons - assuming singlet.
    Specify the multiplicity with the MULTP option in the
    input if this is incorrect


         ---------------------------------------------------------
                                   SCF
            by Justin Turney, Rob Parrish, and Andy Simmonett
                              UHF Reference
                        1 Threads,    256 MiB Core
         ---------------------------------------------------------

  ==> Geometry <==

    Molecular point group: c1
    Full point group: C_inf_v

    Geometry (in Angstrom), charge = 0, multiplicity = 1:

       Center              X                  Y                   Z       
    ------------   -----------------  -----------------  -----------------
           C          0.000000000000     0.000000000000    -0.644597882116
           O          0.000000000000     0.000000000000     0.483602117884

  Running in c1 symmetry.

  Rotational constants: A = ************  B =      1.93170  C =      1.93170 [cm^-1]
  Rotational constants: A = ************  B =  57910.98880  C =  57910.98880 [MHz]
  Nuclear repulsion =   22.514187211770960

  Charge       = 0
  Multiplicity = 1
  Electrons    = 14
  Nalpha       = 7
  Nbeta        = 7

  ==> Algorithm <==

  SCF Algorithm Type is PK.
  DIIS enabled.
  MOM disabled.
  Fractional occupation disabled.
  Guess Type is CORE.
  Energy threshold   = 1.00e-10
  Density threshold  = 1.00e-01
  Integral threshold = 1.00e-12

  ==> Primary Basis <==

  Basis Set: CC-PVDZ
    Number of shells: 12
    Number of basis function: 28
    Number of Cartesian functions: 30
    Spherical Harmonics?: true
    Max angular momentum: 2

  ==> Pre-Iterations <==

   -------------------------------------------------------
    Irrep   Nso     Nmo     Nalpha   Nbeta   Ndocc  Nsocc
   -------------------------------------------------------
     A         28      28       0       0       0       0
   -------------------------------------------------------
    Total      28      28       7       7       7       0
   -------------------------------------------------------

 OEINTS: Overlap, kinetic, potential, dipole, and quadrupole integrals
         stored in file 35.

  ==> Integral Setup <==

 MINTS: Wrapper to libmints.
   by Justin Turney

   Calculation information:
      Number of atoms:                   2
      Number of AO shells:              12
      Number of SO shells:              12
      Number of primitives:             44
      Number of atomic orbitals:        30
      Number of basis functions:        28

      Number of irreps:                  1
      Integral cutoff                 1.00e-12
      Number of functions per irrep: [  28 ]

 OEINTS: Overlap, kinetic, potential, dipole, and quadrupole integrals
         stored in file 35.

      Computing two-electron integrals...done
      Computed 19125 non-zero two-electron integrals.
        Stored in file 33.

	Batch   1 pq = [       0,     406] index = [             0,82621]
  ==> DiskJK: Disk-Based J/K Matrices <==

    J tasked:                  Yes
    K tasked:                  Yes
    wK tasked:                  No
    Memory (MB):               183
    Schwarz Cutoff:          1E-12

  Minimum eigenvalue in the overlap matrix is 2.1731739803E-02.
  Using Symmetric Orthogonalization.
  SCF Guess: Core (One-Electron) Hamiltonian.

  ==> Iterations <==

                        Total Energy        Delta E     RMS |[F,P]|

   @UHF iter   1:  -102.19478362873200   -1.02195e+02   1.11158e-01 
   @UHF iter   2:   -99.73610818747781    2.45868e+00   1.20621e-01 DIIS
   @UHF iter   3:  -112.38498857049281   -1.26489e+01   2.92724e-02 DIIS
   @UHF iter   4:  -112.73296331320974   -3.47975e-01   6.75580e-03 DIIS
   @UHF iter   5:  -112.74718030673067   -1.42170e-02   2.52620e-03 DIIS
   @UHF iter   6:  -112.74855153208527   -1.37123e-03   1.57426e-03 DIIS
   @UHF iter   7:  -112.74928490469152   -7.33373e-04   9.87146e-05 DIIS
   @UHF iter   8:  -112.74929238866140   -7.48397e-06   2.81002e-05 DIIS
   @UHF iter   9:  -112.74929280104958   -4.12388e-07   2.20030e-06 DIIS
   @UHF iter  10:  -112.74929280374000   -2.69043e-09   2.59192e-07 DIIS
   @UHF iter  11:  -112.74929280378284   -4.28315e-11   9.98930e-08 DIIS

  ==> Post-Iterations <==

   @Spin Contamination Metric:   2.930988785E-14
   @S^2 Expected:                0.000000000E+00
   @S^2 Observed:                2.930988785E-14
   @S   Expected:                0.000000000E+00
   @S   Observed:                0.000000000E+00

    Orbital Energies (a.u.)
    -----------------------

    Alpha Occupied:                                                       

       1A    -20.669329     2A    -11.366622     3A     -1.522939  
       4A     -0.802108     5A     -0.634418     6A     -0.634418  
       7A     -0.548815  

    Alpha Virtual:                                                        

       8A      0.154640     9A      0.154640    10A      0.382576  
      11A      0.672215    12A      0.672215    13A      0.726514  
      14A      1.018234    15A      1.061911    16A      1.224410  
      17A      1.224410    18A      1.344245    19A      1.344245  
      20A      1.558392    21A      1.558392    22A      1.938997  
      23A      2.343120    24A      2.937099    25A      2.937099  
      26A      3.426349    27A      3.426349    28A      3.871894  

    Beta Occupied:                                                        

       1A    -20.669329     2A    -11.366622     3A     -1.522939  
       4A     -0.802108     5A     -0.634418     6A     -0.634418  
       7A     -0.548815  

    Beta Virtual:                                                         

       8A      0.154640     9A      0.154640    10A      0.382576  
      11A      0.672215    12A      0.672215    13A      0.726514  
      14A      1.018234    15A      1.061911    16A      1.224410  
      17A      1.224410    18A      1.344245    19A      1.344245  
      20A      1.558392    21A      1.558392    22A      1.938997  
      23A      2.343120    24A      2.937099    25A      2.937099  
      26A      3.426349    27A      3.426349    28A      3.871894  

    Final Occupation by Irrep:
              A 
    DOCC [     7 ]
    SOCC [     0 ]

  Energy converged.

  @UHF Final Energy:  -112.74929280378284

   => Energetics <=

    Nuclear Repulsion Energy =             22.5141872117709596
    One-Electron Energy =                -198.1696635967685154
    Two-Electron Energy =                  62.9061835812147336
    DFT Exchange-Correlation Energy =       0.0000000000000000
    Empirical Dispersion Energy =           0.0000000000000000
    Total Energy =                       -112.7492928037828079



Properties will be evaluated at   0.000000,   0.000000,   0.000000 Bohr
  ==> Properties <==


Properties computed using the SCF density matrix

  Nuclear Dipole Moment: (a.u.)
     X:     0.0000      Y:     0.0000      Z:     0.0023

  Electronic Dipole Moment: (a.u.)
     X:    -0.0000      Y:     0.0000      Z:    -0.0942

  Dipole Moment: (a.u.)
     X:    -0.0000      Y:     0.0000      Z:    -0.0919     Total:     0.0919

  Dipole Moment: (Debye)
     X:    -0.0000      Y:     0.0000      Z:    -0.2336     Total:     0.2336


  Saving occupied orbitals to File 180.

  irrep = 0 mo = 6
  irrep = 0 mo = 7
  irrep = 0 mo = 8
  nofrz = 1 nfrz = 3
  ==> State 0 -> 1
    There are an even number of electrons - assuming singlet.
    Specify the multiplicity with the MULTP option in the
    input if this is incorrect


         ---------------------------------------------------------
                                   SCF
            by Justin Turney, Rob Parrish, and Andy Simmonett
                              UHF Reference
                        1 Threads,    256 MiB Core
         ---------------------------------------------------------

  ==> Geometry <==

    Molecular point group: c1
    Full point group: C_inf_v

    Geometry (in Angstrom), charge = 0, multiplicity = 1:

       Center              X                  Y                   Z       
    ------------   -----------------  -----------------  -----------------
           C          0.000000000000     0.000000000000    -0.644597882116
           O          0.000000000000     0.000000000000     0.483602117884

  Running in c1 symmetry.

  Rotational constants: A = ************  B =      1.93170  C =      1.93170 [cm^-1]
  Rotational constants: A = ************  B =  57910.98880  C =  57910.98880 [MHz]
  Nuclear repulsion =   22.514187211770960

  Charge       = 0
  Multiplicity = 1
  Electrons    = 14
  Nalpha       = 7
  Nbeta        = 7

  ==> Algorithm <==

  SCF Algorithm Type is PK.
  DIIS enabled.
  MOM disabled.
  Fractional occupation disabled.
  Guess Type is CORE.
  Energy threshold   = 1.00e-10
  Density threshold  = 1.00e-01
  Integral threshold = 1.00e-12

  ==> Primary Basis <==

  Basis Set: CC-PVDZ
    Number of shells: 12
    Number of basis function: 28
    Number of Cartesian functions: 30
    Spherical Harmonics?: true
    Max angular momentum: 2


  Alpha frozen occupied MO: 1
  Beta  frozen occupied MO: 0
  Alpha frozen occupied MO: 0
  Alpha frozen occupied MO: 2
  Beta  frozen occupied MO: 1
  Beta  frozen occupied MO: 2
  Copying orbital 1 (0,7)
  Copying orbital 0 (0,6)
  Copying orbital 2 (0,8)  Alpha electrons per irrep (n = 1): 7  
  Beta electrons per irrep (n = 1): 7  
  Number of active MOs per irrep (n = 1): 25  
  Number of unoccupied active MOs per irrep (n = 1): 19  
  ==> Pre-Iterations <==

   -------------------------------------------------------
    Irrep   Nso     Nmo     Nalpha   Nbeta   Ndocc  Nsocc
   -------------------------------------------------------
     A         28      28       7       7       0       0
   -------------------------------------------------------
    Total      28      28       7       7       7       0
   -------------------------------------------------------

 OEINTS: Overlap, kinetic, potential, dipole, and quadrupole integrals
         stored in file 35.

  ==> Integral Setup <==

 MINTS: Wrapper to libmints.
   by Justin Turney

   Calculation information:
      Number of atoms:                   2
      Number of AO shells:              12
      Number of SO shells:              12
      Number of primitives:             44
      Number of atomic orbitals:        30
      Number of basis functions:        28

      Number of irreps:                  1
      Integral cutoff                 1.00e-12
      Number of functions per irrep: [  28 ]

 OEINTS: Overlap, kinetic, potential, dipole, and quadrupole integrals
         stored in file 35.

      Computing two-electron integrals...done
      Computed 19125 non-zero two-electron integrals.
        Stored in file 33.

	Batch   1 pq = [       0,     406] index = [             0,82621]
  ==> DiskJK: Disk-Based J/K Matrices <==

    J tasked:                  Yes
    K tasked:                  Yes
    wK tasked:                  No
    Memory (MB):               183
    Schwarz Cutoff:          1E-12

  Minimum eigenvalue in the overlap matrix is 2.1731739803E-02.
  Using Symmetric Orthogonalization.
  SCF Guess: Core (One-Electron) Hamiltonian.

  ==> Iterations <==

                        Total Energy        Delta E     RMS |[F,P]|

   @UHF iter   1:  -107.33145017621500   -1.07331e+02   1.15319e-01 
   @UHF iter   2:  -111.82885238937483   -4.49740e+00   4.60587e-02 
   @UHF iter   3:  -112.37785763292571   -5.49005e-01   1.82074e-02 
   @UHF iter   4:  -112.44012702162568   -6.22694e-02   7.68586e-03 
   @UHF iter   5:  -112.44636522445991   -6.23820e-03   6.55159e-03 
   @UHF iter   6:  -112.44698098604833   -6.15762e-04   6.18864e-03 
   @UHF iter   7:  -112.44704135321895   -6.03672e-05   6.22465e-03 
   @UHF iter   8:  -112.44704727025022   -5.91703e-06   6.20564e-03 
   @UHF iter   9:  -112.44704785047200   -5.80222e-07   6.21069e-03 
   @UHF iter  10:  -112.44704790743178   -5.69598e-08   6.20900e-03 
   @UHF iter  11:  -112.44704791303046   -5.59868e-09   6.20950e-03 
   @UHF iter  12:  -112.44704791358167   -5.51211e-10   6.20934e-03 
   @UHF iter  13:  -112.44704791363598   -5.43139e-11   6.20939e-03 

  ==> Post-Iterations <==

   @Spin Contamination Metric:   1.000000000E+00
   @S^2 Expected:                0.000000000E+00
   @S^2 Observed:                1.000000000E+00
   @S   Expected:                0.000000000E+00
   @S   Observed:                0.000000000E+00

    Orbital Energies (a.u.)
    -----------------------

    Alpha Occupied:                                                       

       1A      0.000000     2A      0.000000     3A      0.000000  
       4A      0.000000     5A      0.000000     6A      0.000000  
       7A      0.000000  

    Alpha Virtual:                                                        

       8A      0.000000     9A      0.000000    10A      0.000000  
      11A      0.000000    12A      0.000000    13A      0.000000  
      14A      0.000000    15A      0.000000    16A      0.000000  
      17A      0.000000    18A      0.000000    19A      0.000000  
      20A      0.000000    21A      0.000000    22A      0.000000  
      23A      0.000000    24A      0.000000    25A      0.000000  
      26A      0.000000    27A      0.000000    28A      0.000000  

    Beta Occupied:                                                        

       1A      0.000000     2A      0.000000     3A      0.000000  
       4A      0.000000     5A      0.000000     6A      0.000000  
       7A      0.000000  

    Beta Virtual:                                                         

       8A      0.000000     9A      0.000000    10A      0.000000  
      11A      0.000000    12A      0.000000    13A      0.000000  
      14A      0.000000    15A      0.000000    16A      0.000000  
      17A      0.000000    18A      0.000000    19A      0.000000  
      20A      0.000000    21A      0.000000    22A      0.000000  
      23A      0.000000    24A      0.000000    25A      0.000000  
      26A      0.000000    27A      0.000000    28A      0.000000  

    Final Occupation by Irrep:
              A 
    DOCC [     7 ]
    SOCC [     0 ]

  Energy converged.

  @UHF Final Energy:  -112.44704791363598

   => Energetics <=

    Nuclear Repulsion Energy =             22.5141872117709596
    One-Electron Energy =                -197.7790116925300481
    Two-Electron Energy =                  62.8177765671230901
    DFT Exchange-Correlation Energy =       0.0000000000000000
    Empirical Dispersion Energy =           0.0000000000000000
    Total Energy =                       -112.4470479136360126



Properties will be evaluated at   0.000000,   0.000000,   0.000000 Bohr
  ==> Properties <==


Properties computed using the SCF density matrix

  Nuclear Dipole Moment: (a.u.)
     X:     0.0000      Y:     0.0000      Z:     0.0023

  Electronic Dipole Moment: (a.u.)
     X:    -0.0000      Y:     0.0000      Z:    -0.0942

  Dipole Moment: (a.u.)
     X:    -0.0000      Y:     0.0000      Z:    -0.0919     Total:     0.0919

  Dipole Moment: (Debye)
     X:    -0.0000      Y:     0.0000      Z:    -0.2336     Total:     0.2336


  Saving occupied orbitals to File 180.

  ==> State 0 -> 2
    There are an even number of electrons - assuming singlet.
    Specify the multiplicity with the MULTP option in the
    input if this is incorrect


         ---------------------------------------------------------
                                   SCF
            by Justin Turney, Rob Parrish, and Andy Simmonett
                              UHF Reference
                        1 Threads,    256 MiB Core
         ---------------------------------------------------------

  ==> Geometry <==

    Molecular point group: c1
    Full point group: C_inf_v

    Geometry (in Angstrom), charge = 0, multiplicity = 1:

       Center              X                  Y                   Z       
    ------------   -----------------  -----------------  -----------------
           C          0.000000000000     0.000000000000    -0.644597882116
           O          0.000000000000     0.000000000000     0.483602117884

  Running in c1 symmetry.

  Rotational constants: A = ************  B =      1.93170  C =      1.93170 [cm^-1]
  Rotational constants: A = ************  B =  57910.98880  C =  57910.98880 [MHz]
  Nuclear repulsion =   22.514187211770960

  Charge       = 0
  Multiplicity = 1
  Electrons    = 14
  Nalpha       = 7
  Nbeta        = 7

  ==> Algorithm <==

  SCF Algorithm Type is PK.
  DIIS enabled.
  MOM disabled.
  Fractional occupation disabled.
  Guess Type is CORE.
  Energy threshold   = 1.00e-10
  Density threshold  = 1.00e-01
  Integral threshold = 1.00e-12

  ==> Primary Basis <==

  Basis Set: CC-PVDZ
    Number of shells: 12
    Number of basis function: 28
    Number of Cartesian functions: 30
    Spherical Harmonics?: true
    Max angular momentum: 2


  Alpha frozen occupied MO: 2
  Beta  frozen occupied MO: 0
  Alpha frozen occupied MO: 0
  Alpha frozen occupied MO: 1
  Beta  frozen occupied MO: 1
  Beta  frozen occupied MO: 2
  Copying orbital 2 (0,8)
  Copying orbital 0 (0,6)
  Copying orbital 1 (0,7)  Alpha electrons per irrep (n = 1): 7  
  Beta electrons per irrep (n = 1): 7  
  Number of active MOs per irrep (n = 1): 25  
  Number of unoccupied active MOs per irrep (n = 1): 19  
  ==> Pre-Iterations <==

   -------------------------------------------------------
    Irrep   Nso     Nmo     Nalpha   Nbeta   Ndocc  Nsocc
   -------------------------------------------------------
     A         28      28       7       7       0       0
   -------------------------------------------------------
    Total      28      28       7       7       7       0
   -------------------------------------------------------

 OEINTS: Overlap, kinetic, potential, dipole, and quadrupole integrals
         stored in file 35.

  ==> Integral Setup <==

 MINTS: Wrapper to libmints.
   by Justin Turney

   Calculation information:
      Number of atoms:                   2
      Number of AO shells:              12
      Number of SO shells:              12
      Number of primitives:             44
      Number of atomic orbitals:        30
      Number of basis functions:        28

      Number of irreps:                  1
      Integral cutoff                 1.00e-12
      Number of functions per irrep: [  28 ]

 OEINTS: Overlap, kinetic, potential, dipole, and quadrupole integrals
         stored in file 35.

      Computing two-electron integrals...done
      Computed 19125 non-zero two-electron integrals.
        Stored in file 33.

	Batch   1 pq = [       0,     406] index = [             0,82621]
  ==> DiskJK: Disk-Based J/K Matrices <==

    J tasked:                  Yes
    K tasked:                  Yes
    wK tasked:                  No
    Memory (MB):               183
    Schwarz Cutoff:          1E-12

  Minimum eigenvalue in the overlap matrix is 2.1731739803E-02.
  Using Symmetric Orthogonalization.
  SCF Guess: Core (One-Electron) Hamiltonian.

  ==> Iterations <==

                        Total Energy        Delta E     RMS |[F,P]|

   @UHF iter   1:  -107.33145017621500   -1.07331e+02   1.15319e-01 
   @UHF iter   2:  -111.82885238937497   -4.49740e+00   4.60587e-02 
   @UHF iter   3:  -112.37785763292577   -5.49005e-01   1.82074e-02 
   @UHF iter   4:  -112.44012702162571   -6.22694e-02   7.68586e-03 
   @UHF iter   5:  -112.44636522446005   -6.23820e-03   6.55159e-03 
   @UHF iter   6:  -112.44698098604850   -6.15762e-04   6.18864e-03 
   @UHF iter   7:  -112.44704135321915   -6.03672e-05   6.22465e-03 
   @UHF iter   8:  -112.44704727025048   -5.91703e-06   6.20564e-03 
   @UHF iter   9:  -112.44704785047243   -5.80222e-07   6.21069e-03 
   @UHF iter  10:  -112.44704790743224   -5.69598e-08   6.20900e-03 
   @UHF iter  11:  -112.44704791303091   -5.59868e-09   6.20950e-03 
   @UHF iter  12:  -112.44704791358201   -5.51097e-10   6.20934e-03 
   @UHF iter  13:  -112.44704791363630   -5.42855e-11   6.20939e-03 

  ==> Post-Iterations <==

   @Spin Contamination Metric:   1.000000000E+00
   @S^2 Expected:                0.000000000E+00
   @S^2 Observed:                1.000000000E+00
   @S   Expected:                0.000000000E+00
   @S   Observed:                0.000000000E+00

    Orbital Energies (a.u.)
    -----------------------

    Alpha Occupied:                                                       

       1A      0.000000     2A      0.000000     3A      0.000000  
       4A      0.000000     5A      0.000000     6A      0.000000  
       7A      0.000000  

    Alpha Virtual:                                                        

       8A      0.000000     9A      0.000000    10A      0.000000  
      11A      0.000000    12A      0.000000    13A      0.000000  
      14A      0.000000    15A      0.000000    16A      0.000000  
      17A      0.000000    18A      0.000000    19A      0.000000  
      20A      0.000000    21A      0.000000    22A      0.000000  
      23A      0.000000    24A      0.000000    25A      0.000000  
      26A      0.000000    27A      0.000000    28A      0.000000  

    Beta Occupied:                                                        

       1A      0.000000     2A      0.000000     3A      0.000000  
       4A      0.000000     5A      0.000000     6A      0.000000  
       7A      0.000000  

    Beta Virtual:                                                         

       8A      0.000000     9A      0.000000    10A      0.000000  
      11A      0.000000    12A      0.000000    13A      0.000000  
      14A      0.000000    15A      0.000000    16A      0.000000  
      17A      0.000000    18A      0.000000    19A      0.000000  
      20A      0.000000    21A      0.000000    22A      0.000000  
      23A      0.000000    24A      0.000000    25A      0.000000  
      26A      0.000000    27A      0.000000    28A      0.000000  

    Final Occupation by Irrep:
              A 
    DOCC [     7 ]
    SOCC [     0 ]

  Energy converged.

  @UHF Final Energy:  -112.44704791363630

   => Energetics <=

    Nuclear Repulsion Energy =             22.5141872117709596
    One-Electron Energy =                -197.7790116925305028
    Two-Electron Energy =                  62.8177765671232464
    DFT Exchange-Correlation Energy =       0.0000000000000000
    Empirical Dispersion Energy =           0.0000000000000000
    Total Energy =                       -112.4470479136363110



Properties will be evaluated at   0.000000,   0.000000,   0.000000 Bohr
  ==> Properties <==


Properties computed using the SCF density matrix

  Nuclear Dipole Moment: (a.u.)
     X:     0.0000      Y:     0.0000      Z:     0.0023

  Electronic Dipole Moment: (a.u.)
     X:    -0.0000      Y:     0.0000      Z:    -0.0942

  Dipole Moment: (a.u.)
     X:    -0.0000      Y:     0.0000      Z:    -0.0919     Total:     0.0919

  Dipole Moment: (Debye)
     X:    -0.0000      Y:     0.0000      Z:    -0.2336     Total:     0.2336


  Saving occupied orbitals to File 180.

  ==> State 0 -> 1
    There are an even number of electrons - assuming singlet.
    Specify the multiplicity with the MULTP option in the
    input if this is incorrect


         ---------------------------------------------------------
                                   SCF
            by Justin Turney, Rob Parrish, and Andy Simmonett
                              UHF Reference
                        1 Threads,    256 MiB Core
         ---------------------------------------------------------

  ==> Geometry <==

    Molecular point group: c1
    Full point group: C_inf_v

    Geometry (in Angstrom), charge = 0, multiplicity = 1:

       Center              X                  Y                   Z       
    ------------   -----------------  -----------------  -----------------
           C          0.000000000000     0.000000000000    -0.644597882116
           O          0.000000000000     0.000000000000     0.483602117884

  Running in c1 symmetry.

  Rotational constants: A = ************  B =      1.93170  C =      1.93170 [cm^-1]
  Rotational constants: A = ************  B =  57910.98880  C =  57910.98880 [MHz]
  Nuclear repulsion =   22.514187211770960

  Charge       = 0
  Multiplicity = 1
  Electrons    = 14
  Nalpha       = 7
  Nbeta        = 7

  ==> Algorithm <==

  SCF Algorithm Type is PK.
  DIIS enabled.
  MOM disabled.
  Fractional occupation disabled.
  Guess Type is CORE.
  Energy threshold   = 1.00e-10
  Density threshold  = 1.00e-01
  Integral threshold = 1.00e-12

  ==> Primary Basis <==

  Basis Set: CC-PVDZ
    Number of shells: 12
    Number of basis function: 28
    Number of Cartesian functions: 30
    Spherical Harmonics?: true
    Max angular momentum: 2


  Alpha frozen occupied MO: 0
  Beta  frozen occupied MO: 1
  Alpha frozen occupied MO: 1
  Alpha frozen occupied MO: 2
  Beta  frozen occupied MO: 0
  Beta  frozen occupied MO: 2
  Copying orbital 0 (0,6)
  Copying orbital 1 (0,7)
  Copying orbital 2 (0,8)  Alpha electrons per irrep (n = 1): 7  
  Beta electrons per irrep (n = 1): 7  
  Number of active MOs per irrep (n = 1): 25  
  Number of unoccupied active MOs per irrep (n = 1): 19  
  ==> Pre-Iterations <==

   -------------------------------------------------------
    Irrep   Nso     Nmo     Nalpha   Nbeta   Ndocc  Nsocc
   -------------------------------------------------------
     A         28      28       7       7       0       0
   -------------------------------------------------------
    Total      28      28       7       7       7       0
   -------------------------------------------------------

 OEINTS: Overlap, kinetic, potential, dipole, and quadrupole integrals
         stored in file 35.

  ==> Integral Setup <==

 MINTS: Wrapper to libmints.
   by Justin Turney

   Calculation information:
      Number of atoms:                   2
      Number of AO shells:              12
      Number of SO shells:              12
      Number of primitives:             44
      Number of atomic orbitals:        30
      Number of basis functions:        28

      Number of irreps:                  1
      Integral cutoff                 1.00e-12
      Number of functions per irrep: [  28 ]

 OEINTS: Overlap, kinetic, potential, dipole, and quadrupole integrals
         stored in file 35.

      Computing two-electron integrals...done
      Computed 19125 non-zero two-electron integrals.
        Stored in file 33.

	Batch   1 pq = [       0,     406] index = [             0,82621]
  ==> DiskJK: Disk-Based J/K Matrices <==

    J tasked:                  Yes
    K tasked:                  Yes
    wK tasked:                  No
    Memory (MB):               183
    Schwarz Cutoff:          1E-12

  Minimum eigenvalue in the overlap matrix is 2.1731739803E-02.
  Using Symmetric Orthogonalization.
  SCF Guess: Core (One-Electron) Hamiltonian.

  ==> Iterations <==

                        Total Energy        Delta E     RMS |[F,P]|

   @UHF iter   1:  -107.33145017621500   -1.07331e+02   1.15319e-01 
   @UHF iter   2:  -111.82885238937483   -4.49740e+00   4.60587e-02 
   @UHF iter   3:  -112.37785763292571   -5.49005e-01   1.82074e-02 
   @UHF iter   4:  -112.44012702162568   -6.22694e-02   7.68586e-03 
   @UHF iter   5:  -112.44636522445991   -6.23820e-03   6.55159e-03 
   @UHF iter   6:  -112.44698098604833   -6.15762e-04   6.18864e-03 
   @UHF iter   7:  -112.44704135321892   -6.03672e-05   6.22465e-03 
   @UHF iter   8:  -112.44704727025022   -5.91703e-06   6.20564e-03 
   @UHF iter   9:  -112.44704785047198   -5.80222e-07   6.21069e-03 
   @UHF iter  10:  -112.44704790743178   -5.69598e-08   6.20900e-03 
   @UHF iter  11:  -112.44704791303046   -5.59868e-09   6.20950e-03 
   @UHF iter  12:  -112.44704791358164   -5.51182e-10   6.20934e-03 
   @UHF iter  13:  -112.44704791363598   -5.43423e-11   6.20939e-03 

  ==> Post-Iterations <==

   @Spin Contamination Metric:   1.000000000E+00
   @S^2 Expected:                0.000000000E+00
   @S^2 Observed:                1.000000000E+00
   @S   Expected:                0.000000000E+00
   @S   Observed:                0.000000000E+00

    Orbital Energies (a.u.)
    -----------------------

    Alpha Occupied:                                                       

       1A      0.000000     2A      0.000000     3A      0.000000  
       4A      0.000000     5A      0.000000     6A      0.000000  
       7A      0.000000  

    Alpha Virtual:                                                        

       8A      0.000000     9A      0.000000    10A      0.000000  
      11A      0.000000    12A      0.000000    13A      0.000000  
      14A      0.000000    15A      0.000000    16A      0.000000  
      17A      0.000000    18A      0.000000    19A      0.000000  
      20A      0.000000    21A      0.000000    22A      0.000000  
      23A      0.000000    24A      0.000000    25A      0.000000  
      26A      0.000000    27A      0.000000    28A      0.000000  

    Beta Occupied:                                                        

       1A      0.000000     2A      0.000000     3A      0.000000  
       4A      0.000000     5A      0.000000     6A      0.000000  
       7A      0.000000  

    Beta Virtual:                                                         

       8A      0.000000     9A      0.000000    10A      0.000000  
      11A      0.000000    12A      0.000000    13A      0.000000  
      14A      0.000000    15A      0.000000    16A      0.000000  
      17A      0.000000    18A      0.000000    19A      0.000000  
      20A      0.000000    21A      0.000000    22A      0.000000  
      23A      0.000000    24A      0.000000    25A      0.000000  
      26A      0.000000    27A      0.000000    28A      0.000000  

    Final Occupation by Irrep:
              A 
    DOCC [     7 ]
    SOCC [     0 ]

  Energy converged.

  @UHF Final Energy:  -112.44704791363598

   => Energetics <=

    Nuclear Repulsion Energy =             22.5141872117709596
    One-Electron Energy =                -197.7790116925300481
    Two-Electron Energy =                  62.8177765671230901
    DFT Exchange-Correlation Energy =       0.0000000000000000
    Empirical Dispersion Energy =           0.0000000000000000
    Total Energy =                       -112.4470479136360126



Properties will be evaluated at   0.000000,   0.000000,   0.000000 Bohr
  ==> Properties <==


Properties computed using the SCF density matrix

  Nuclear Dipole Moment: (a.u.)
     X:     0.0000      Y:     0.0000      Z:     0.0023

  Electronic Dipole Moment: (a.u.)
     X:    -0.0000      Y:     0.0000      Z:    -0.0942

  Dipole Moment: (a.u.)
     X:    -0.0000      Y:     0.0000      Z:    -0.0919     Total:     0.0919

  Dipole Moment: (Debye)
     X:    -0.0000      Y:     0.0000      Z:    -0.2336     Total:     0.2336


  Saving occupied orbitals to File 180.

  ==> State 0 -> 2
    There are an even number of electrons - assuming singlet.
    Specify the multiplicity with the MULTP option in the
    input if this is incorrect


         ---------------------------------------------------------
                                   SCF
            by Justin Turney, Rob Parrish, and Andy Simmonett
                              UHF Reference
                        1 Threads,    256 MiB Core
         ---------------------------------------------------------

  ==> Geometry <==

    Molecular point group: c1
    Full point group: C_inf_v

    Geometry (in Angstrom), charge = 0, multiplicity = 1:

       Center              X                  Y                   Z       
    ------------   -----------------  -----------------  -----------------
           C          0.000000000000     0.000000000000    -0.644597882116
           O          0.000000000000     0.000000000000     0.483602117884

  Running in c1 symmetry.

  Rotational constants: A = ************  B =      1.93170  C =      1.93170 [cm^-1]
  Rotational constants: A = ************  B =  57910.98880  C =  57910.98880 [MHz]
  Nuclear repulsion =   22.514187211770960

  Charge       = 0
  Multiplicity = 1
  Electrons    = 14
  Nalpha       = 7
  Nbeta        = 7

  ==> Algorithm <==

  SCF Algorithm Type is PK.
  DIIS enabled.
  MOM disabled.
  Fractional occupation disabled.
  Guess Type is CORE.
  Energy threshold   = 1.00e-10
  Density threshold  = 1.00e-01
  Integral threshold = 1.00e-12

  ==> Primary Basis <==

  Basis Set: CC-PVDZ
    Number of shells: 12
    Number of basis function: 28
    Number of Cartesian functions: 30
    Spherical Harmonics?: true
    Max angular momentum: 2


  Alpha frozen occupied MO: 0
  Beta  frozen occupied MO: 2
  Alpha frozen occupied MO: 1
  Alpha frozen occupied MO: 2
  Beta  frozen occupied MO: 0
  Beta  frozen occupied MO: 1
  Copying orbital 0 (0,6)
  Copying orbital 1 (0,7)
  Copying orbital 2 (0,8)  Alpha electrons per irrep (n = 1): 7  
  Beta electrons per irrep (n = 1): 7  
  Number of active MOs per irrep (n = 1): 25  
  Number of unoccupied active MOs per irrep (n = 1): 19  
  ==> Pre-Iterations <==

   -------------------------------------------------------
    Irrep   Nso     Nmo     Nalpha   Nbeta   Ndocc  Nsocc
   -------------------------------------------------------
     A         28      28       7       7       0       0
   -------------------------------------------------------
    Total      28      28       7       7       7       0
   -------------------------------------------------------

 OEINTS: Overlap, kinetic, potential, dipole, and quadrupole integrals
         stored in file 35.

  ==> Integral Setup <==

 MINTS: Wrapper to libmints.
   by Justin Turney

   Calculation information:
      Number of atoms:                   2
      Number of AO shells:              12
      Number of SO shells:              12
      Number of primitives:             44
      Number of atomic orbitals:        30
      Number of basis functions:        28

      Number of irreps:                  1
      Integral cutoff                 1.00e-12
      Number of functions per irrep: [  28 ]

 OEINTS: Overlap, kinetic, potential, dipole, and quadrupole integrals
         stored in file 35.

      Computing two-electron integrals...done
      Computed 19125 non-zero two-electron integrals.
        Stored in file 33.

	Batch   1 pq = [       0,     406] index = [             0,82621]
  ==> DiskJK: Disk-Based J/K Matrices <==

    J tasked:                  Yes
    K tasked:                  Yes
    wK tasked:                  No
    Memory (MB):               183
    Schwarz Cutoff:          1E-12

  Minimum eigenvalue in the overlap matrix is 2.1731739803E-02.
  Using Symmetric Orthogonalization.
  SCF Guess: Core (One-Electron) Hamiltonian.

  ==> Iterations <==

                        Total Energy        Delta E     RMS |[F,P]|

   @UHF iter   1:  -107.33145017621500   -1.07331e+02   1.15319e-01 
   @UHF iter   2:  -111.82885238937497   -4.49740e+00   4.60587e-02 
   @UHF iter   3:  -112.37785763292580   -5.49005e-01   1.82074e-02 
   @UHF iter   4:  -112.44012702162568   -6.22694e-02   7.68586e-03 
   @UHF iter   5:  -112.44636522446005   -6.23820e-03   6.55159e-03 
   @UHF iter   6:  -112.44698098604850   -6.15762e-04   6.18864e-03 
   @UHF iter   7:  -112.44704135321918   -6.03672e-05   6.22465e-03 
   @UHF iter   8:  -112.44704727025048   -5.91703e-06   6.20564e-03 
   @UHF iter   9:  -112.44704785047243   -5.80222e-07   6.21069e-03 
   @UHF iter  10:  -112.44704790743226   -5.69598e-08   6.20900e-03 
   @UHF iter  11:  -112.44704791303091   -5.59865e-09   6.20950e-03 
   @UHF iter  12:  -112.44704791358201   -5.51097e-10   6.20934e-03 
   @UHF iter  13:  -112.44704791363630   -5.42855e-11   6.20939e-03 

  ==> Post-Iterations <==

   @Spin Contamination Metric:   1.000000000E+00
   @S^2 Expected:                0.000000000E+00
   @S^2 Observed:                1.000000000E+00
   @S   Expected:                0.000000000E+00
   @S   Observed:                0.000000000E+00

    Orbital Energies (a.u.)
    -----------------------

    Alpha Occupied:                                                       

       1A      0.000000     2A      0.000000     3A      0.000000  
       4A      0.000000     5A      0.000000     6A      0.000000  
       7A      0.000000  

    Alpha Virtual:                                                        

       8A      0.000000     9A      0.000000    10A      0.000000  
      11A      0.000000    12A      0.000000    13A      0.000000  
      14A      0.000000    15A      0.000000    16A      0.000000  
      17A      0.000000    18A      0.000000    19A      0.000000  
      20A      0.000000    21A      0.000000    22A      0.000000  
      23A      0.000000    24A      0.000000    25A      0.000000  
      26A      0.000000    27A      0.000000    28A      0.000000  

    Beta Occupied:                                                        

       1A      0.000000     2A      0.000000     3A      0.000000  
       4A      0.000000     5A      0.000000     6A      0.000000  
       7A      0.000000  

    Beta Virtual:                                                         

       8A      0.000000     9A      0.000000    10A      0.000000  
      11A      0.000000    12A      0.000000    13A      0.000000  
      14A      0.000000    15A      0.000000    16A      0.000000  
      17A      0.000000    18A      0.000000    19A      0.000000  
      20A      0.000000    21A      0.000000    22A      0.000000  
      23A      0.000000    24A      0.000000    25A      0.000000  
      26A      0.000000    27A      0.000000    28A      0.000000  

    Final Occupation by Irrep:
              A 
    DOCC [     7 ]
    SOCC [     0 ]

  Energy converged.

  @UHF Final Energy:  -112.44704791363630

   => Energetics <=

    Nuclear Repulsion Energy =             22.5141872117709596
    One-Electron Energy =                -197.7790116925305028
    Two-Electron Energy =                  62.8177765671232464
    DFT Exchange-Correlation Energy =       0.0000000000000000
    Empirical Dispersion Energy =           0.0000000000000000
    Total Energy =                       -112.4470479136363110



Properties will be evaluated at   0.000000,   0.000000,   0.000000 Bohr
  ==> Properties <==


Properties computed using the SCF density matrix

  Nuclear Dipole Moment: (a.u.)
     X:     0.0000      Y:     0.0000      Z:     0.0023

  Electronic Dipole Moment: (a.u.)
     X:    -0.0000      Y:     0.0000      Z:    -0.0942

  Dipole Moment: (a.u.)
     X:    -0.0000      Y:     0.0000      Z:    -0.0919     Total:     0.0919

  Dipole Moment: (Debye)
     X:    -0.0000      Y:     0.0000      Z:    -0.2336     Total:     0.2336


  Saving occupied orbitals to File 180.
 MINTS: Wrapper to libmints.
   by Justin Turney

   Calculation information:
      Number of atoms:                   2
      Number of AO shells:              12
      Number of SO shells:              12
      Number of primitives:             44
      Number of atomic orbitals:        30
      Number of basis functions:        28

      Number of irreps:                  1
      Integral cutoff                 1.00e-12
      Number of functions per irrep: [  28 ]

 OEINTS: Overlap, kinetic, potential, dipole, and quadrupole integrals
         stored in file 35.

      Computing two-electron integrals...done
      Computed 19125 non-zero two-electron integrals.
        Stored in file 33.

	Batch   1 pq = [       0,     406] index = [             0,82621]

  ==> Reading the two-electron integrals (C1 symmetry) <==
  ==> Computing the NOCI energy <==
  Element (0,0)
 det U = 1.000000, det V = 1.000000
 det U = 1.000000, det V = 1.000000
  Corresponding orbitals:

  Alpha: 
  Beta: 
  Stilde = 1.000000

  Noncoincidences: 0a + 0b 

  Element (0,1)
 det U = -1.000000, det V = 1.000000
 det U = -1.000000, det V = -1.000000
  Corresponding orbitals:

  Alpha:  MO = 6, s = 3.038302e-16
  Beta: 
  Stilde = -0.997588

  Noncoincidences: 1a + 0b 
  ## D_BA (Symmetry 0) ##
  Irrep: 1 Size: 28 x 28

                 1                   2                   3                   4                   5

    1     0.00000000000000    -0.00000000000000    -0.00000000000000     0.00000000000000     0.00000000000000
    2    -0.00000000000000     0.00000000000000     0.00000000000000    -0.00000000000000    -0.00000000000000
    3    -0.00000000000000     0.00000000000000     0.00000000000000    -0.00000000000000    -0.00000000000000
    4    -0.00000000000000     0.00000000000000     0.00000000000000    -0.00000000000000    -0.00000000000000
    5    -0.00265800100075     0.12750175458055     0.25205428222769    -0.19667758701008    -0.00000000000000
    6     0.00049398219113    -0.02369585116142    -0.04684359659140     0.03655198976603     0.00000000000000
    7    -0.00000000000000     0.00000000000000     0.00000000000000    -0.00000000000000    -0.00000000000000
    8    -0.00465124610453     0.22311580738518     0.44107075129381    -0.34416686079876    -0.00000000000000
    9     0.00086442132323    -0.04146546046329    -0.08197178861340     0.06396246651672     0.00000000000000
   10    -0.00000000000000     0.00000000000000     0.00000000000000    -0.00000000000000    -0.00000000000000
   11     0.00005361493409    -0.00257185688269    -0.00508422446962     0.00396721290218     0.00000000000000
   12    -0.00000996418835     0.00047797254321     0.00094488916407    -0.00073729562989    -0.00000000000000
   13     0.00000000000000    -0.00000000000000    -0.00000000000000     0.00000000000000     0.00000000000000
   14    -0.00000000000000     0.00000000000000     0.00000000000000    -0.00000000000000    -0.00000000000000
   15     0.00000000000000    -0.00000000000000    -0.00000000000000     0.00000000000000     0.00000000000000
   16    -0.00000000000000     0.00000000000000     0.00000000000000    -0.00000000000000    -0.00000000000000
   17     0.00000000000000    -0.00000000000000    -0.00000000000000     0.00000000000000     0.00000000000000
   18     0.00000000000000    -0.00000000000000    -0.00000000000000     0.00000000000000     0.00000000000000
   19     0.00209194081183    -0.10034839110707    -0.19837563629146     0.15479221825777     0.00000000000000
   20    -0.00038878145857     0.01864947308203     0.03686756756469    -0.02876770893741    -0.00000000000000
   21    -0.00000000000000     0.00000000000000     0.00000000000000    -0.00000000000000    -0.00000000000000
   22     0.00302036921001    -0.14488420946730    -0.28641712063919     0.22349085946020     0.00000000000000
   23    -0.00056132732831     0.02692633269614     0.05322983580169    -0.04153516286211    -0.00000000000000
   24    -0.00000000000000     0.00000000000000     0.00000000000000    -0.00000000000000    -0.00000000000000
   25     0.00005420702062    -0.00260025870492    -0.00514037115513     0.00401102407859     0.00000000000000
   26    -0.00001007422601     0.00048325094392     0.00095532387148    -0.00074543781679    -0.00000000000000
   27    -0.00000000000000     0.00000000000000     0.00000000000000    -0.00000000000000    -0.00000000000000
   28    -0.00000000000000     0.00000000000000     0.00000000000000    -0.00000000000000    -0.00000000000000

                 6                   7                   8                   9                  10

    1    -0.00000000000000     0.00000000000000     0.00000000000000    -0.00000000000000     0.00000000000000
    2     0.00000000000000    -0.00000000000000    -0.00000000000000     0.00000000000000    -0.00000000000000
    3     0.00000000000000    -0.00000000000000    -0.00000000000000     0.00000000000000    -0.00000000000000
    4     0.00000000000000    -0.00000000000000    -0.00000000000000     0.00000000000000    -0.00000000000000
    5     0.00000000000000    -0.07081925522990    -0.00000000000000     0.00000000000000    -0.01482689808026
    6    -0.00000000000000     0.01316156422169     0.00000000000000    -0.00000000000000     0.00275553831593
    7     0.00000000000000    -0.00000000000000    -0.00000000000000     0.00000000000000    -0.00000000000000
    8     0.00000000000000    -0.12392688524967    -0.00000000000000     0.00000000000000    -0.02594564558799
    9    -0.00000000000000     0.02303147150747     0.00000000000000    -0.00000000000000     0.00482192702495
   10     0.00000000000000    -0.00000000000000    -0.00000000000000     0.00000000000000    -0.00000000000000
   11    -0.00000000000000     0.00142850574558     0.00000000000000    -0.00000000000000     0.00029907556960
   12     0.00000000000000    -0.00026548387230    -0.00000000000000     0.00000000000000    -0.00005558237380
   13    -0.00000000000000     0.00000000000000     0.00000000000000    -0.00000000000000     0.00000000000000
   14     0.00000000000000    -0.00000000000000    -0.00000000000000     0.00000000000000    -0.00000000000000
   15    -0.00000000000000     0.00000000000000     0.00000000000000    -0.00000000000000     0.00000000000000
   16     0.00000000000000    -0.00000000000000    -0.00000000000000     0.00000000000000    -0.00000000000000
   17    -0.00000000000000     0.00000000000000     0.00000000000000    -0.00000000000000     0.00000000000000
   18    -0.00000000000000     0.00000000000000     0.00000000000000    -0.00000000000000     0.00000000000000
   19    -0.00000000000000     0.05573725902910     0.00000000000000    -0.00000000000000     0.01166929327645
   20     0.00000000000000    -0.01035861662017    -0.00000000000000     0.00000000000000    -0.00216870612916
   21     0.00000000000000    -0.00000000000000    -0.00000000000000     0.00000000000000    -0.00000000000000
   22    -0.00000000000000     0.08047412243699     0.00000000000000    -0.00000000000000     0.01684826545546
   23     0.00000000000000    -0.01495589479444    -0.00000000000000     0.00000000000000    -0.00313120389499
   24     0.00000000000000    -0.00000000000000    -0.00000000000000     0.00000000000000    -0.00000000000000
   25    -0.00000000000000     0.00144428118259     0.00000000000000    -0.00000000000000     0.00030237835493
   26     0.00000000000000    -0.00026841569397    -0.00000000000000     0.00000000000000    -0.00005619618739
   27     0.00000000000000    -0.00000000000000    -0.00000000000000     0.00000000000000    -0.00000000000000
   28     0.00000000000000    -0.00000000000000    -0.00000000000000     0.00000000000000    -0.00000000000000

                11                  12                  13                  14                  15

    1     0.00000000000000    -0.00000000000000     0.00000000000000    -0.00000000000000     0.00000000000000
    2    -0.00000000000000     0.00000000000000    -0.00000000000000     0.00000000000000    -0.00000000000000
    3    -0.00000000000000     0.00000000000000    -0.00000000000000     0.00000000000000    -0.00000000000000
    4    -0.00000000000000     0.00000000000000    -0.00000000000000     0.00000000000000    -0.00000000000000
    5    -0.00000000000000     0.00000000000000    -0.00000000000000     0.00000000000000    -0.00013973533602
    6     0.00000000000000    -0.00000000000000     0.00000000000000    -0.00000000000000     0.00002596942870
    7    -0.00000000000000     0.00000000000000    -0.00000000000000     0.00000000000000    -0.00000000000000
    8    -0.00000000000000     0.00000000000000    -0.00000000000000     0.00000000000000    -0.00024452339827
    9     0.00000000000000    -0.00000000000000     0.00000000000000    -0.00000000000000     0.00004544400248
   10    -0.00000000000000     0.00000000000000    -0.00000000000000     0.00000000000000    -0.00000000000000
   11     0.00000000000000    -0.00000000000000     0.00000000000000    -0.00000000000000     0.00000281862228
   12    -0.00000000000000     0.00000000000000    -0.00000000000000     0.00000000000000    -0.00000052383321
   13     0.00000000000000    -0.00000000000000     0.00000000000000    -0.00000000000000     0.00000000000000
   14    -0.00000000000000     0.00000000000000    -0.00000000000000     0.00000000000000    -0.00000000000000
   15     0.00000000000000    -0.00000000000000     0.00000000000000    -0.00000000000000     0.00000000000000
   16    -0.00000000000000     0.00000000000000    -0.00000000000000     0.00000000000000    -0.00000000000000
   17     0.00000000000000    -0.00000000000000     0.00000000000000    -0.00000000000000     0.00000000000000
   18     0.00000000000000    -0.00000000000000     0.00000000000000    -0.00000000000000     0.00000000000000
   19     0.00000000000000    -0.00000000000000     0.00000000000000    -0.00000000000000     0.00010997665245
   20    -0.00000000000000     0.00000000000000    -0.00000000000000     0.00000000000000    -0.00002043885903
   21    -0.00000000000000     0.00000000000000    -0.00000000000000     0.00000000000000    -0.00000000000000
   22     0.00000000000000    -0.00000000000000     0.00000000000000    -0.00000000000000     0.00015878560856
   23    -0.00000000000000     0.00000000000000    -0.00000000000000     0.00000000000000    -0.00002950986957
   24    -0.00000000000000     0.00000000000000    -0.00000000000000     0.00000000000000    -0.00000000000000
   25     0.00000000000000    -0.00000000000000     0.00000000000000    -0.00000000000000     0.00000284974921
   26    -0.00000000000000     0.00000000000000    -0.00000000000000     0.00000000000000    -0.00000052961807
   27    -0.00000000000000     0.00000000000000    -0.00000000000000     0.00000000000000    -0.00000000000000
   28    -0.00000000000000     0.00000000000000    -0.00000000000000     0.00000000000000    -0.00000000000000

                16                  17                  18                  19                  20

    1     0.00000000000000     0.00000000000000    -0.00000000000000     0.00000000000000    -0.00000000000000
    2    -0.00000000000000    -0.00000000000000     0.00000000000000    -0.00000000000000     0.00000000000000
    3    -0.00000000000000    -0.00000000000000     0.00000000000000    -0.00000000000000     0.00000000000000
    4    -0.00000000000000    -0.00000000000000     0.00000000000000    -0.00000000000000     0.00000000000000
    5    -0.01449161613374    -0.00377550962256     0.11007867454404    -0.00000000000000     0.00000000000000
    6     0.00269322708635     0.00070166810150    -0.02045781955412     0.00000000000000    -0.00000000000000
    7    -0.00000000000000    -0.00000000000000     0.00000000000000    -0.00000000000000     0.00000000000000
    8    -0.02535893442905    -0.00660677871061     0.19262709307478    -0.00000000000000     0.00000000000000
    9     0.00471288836628     0.00122785169113    -0.03579921658469     0.00000000000000    -0.00000000000000
   10    -0.00000000000000    -0.00000000000000     0.00000000000000    -0.00000000000000     0.00000000000000
   11     0.00029231254752     0.00007615636695    -0.00222041334015     0.00000000000000    -0.00000000000000
   12    -0.00005432548471    -0.00001415345179     0.00041265772536    -0.00000000000000     0.00000000000000
   13     0.00000000000000     0.00000000000000    -0.00000000000000     0.00000000000000    -0.00000000000000
   14    -0.00000000000000    -0.00000000000000     0.00000000000000    -0.00000000000000     0.00000000000000
   15     0.00000000000000     0.00000000000000    -0.00000000000000     0.00000000000000    -0.00000000000000
   16    -0.00000000000000    -0.00000000000000     0.00000000000000    -0.00000000000000     0.00000000000000
   17     0.00000000000000     0.00000000000000    -0.00000000000000     0.00000000000000    -0.00000000000000
   18     0.00000000000000     0.00000000000000    -0.00000000000000     0.00000000000000    -0.00000000000000
   19     0.01140541452427     0.00297145962799    -0.08663581079360     0.00000000000000    -0.00000000000000
   20    -0.00211966498728    -0.00055223761672     0.01610102766482    -0.00000000000000     0.00000000000000
   21    -0.00000000000000    -0.00000000000000     0.00000000000000    -0.00000000000000     0.00000000000000
   22     0.01646727415123     0.00429022901528    -0.12508582170488     0.00000000000000    -0.00000000000000
   23    -0.00306039770673    -0.00079732728800     0.02324685666698    -0.00000000000000     0.00000000000000
   24    -0.00000000000000    -0.00000000000000     0.00000000000000    -0.00000000000000     0.00000000000000
   25     0.00029554064667     0.00007699738560    -0.00224493406111     0.00000000000000    -0.00000000000000
   26    -0.00005492541807    -0.00001430975279     0.00041721483406    -0.00000000000000     0.00000000000000
   27    -0.00000000000000    -0.00000000000000     0.00000000000000    -0.00000000000000     0.00000000000000
   28    -0.00000000000000    -0.00000000000000     0.00000000000000    -0.00000000000000     0.00000000000000

                21                  22                  23                  24                  25

    1    -0.00000000000000     0.00000000000000    -0.00000000000000     0.00000000000000    -0.00000000000000
    2     0.00000000000000    -0.00000000000000     0.00000000000000    -0.00000000000000     0.00000000000000
    3     0.00000000000000    -0.00000000000000     0.00000000000000    -0.00000000000000     0.00000000000000
    4     0.00000000000000    -0.00000000000000     0.00000000000000    -0.00000000000000     0.00000000000000
    5     0.06547477612173    -0.00000000000000     0.00000000000000    -0.00654478468216     0.00000000000000
    6    -0.01216830744731     0.00000000000000    -0.00000000000000     0.00121633027108    -0.00000000000000
    7     0.00000000000000    -0.00000000000000     0.00000000000000    -0.00000000000000     0.00000000000000
    8     0.11457456084288    -0.00000000000000     0.00000000000000    -0.01145274371576     0.00000000000000
    9    -0.02129336768384     0.00000000000000    -0.00000000000000     0.00212846098763    -0.00000000000000
   10     0.00000000000000    -0.00000000000000     0.00000000000000    -0.00000000000000     0.00000000000000
   11    -0.00132070146144     0.00000000000000    -0.00000000000000     0.00013201582665    -0.00000000000000
   12     0.00024544874196    -0.00000000000000     0.00000000000000    -0.00002453477907     0.00000000000000
   13    -0.00000000000000     0.00000000000000    -0.00000000000000     0.00000000000000    -0.00000000000000
   14     0.00000000000000    -0.00000000000000     0.00000000000000    -0.00000000000000     0.00000000000000
   15    -0.00000000000000     0.00000000000000    -0.00000000000000     0.00000000000000    -0.00000000000000
   16     0.00000000000000    -0.00000000000000     0.00000000000000    -0.00000000000000     0.00000000000000
   17    -0.00000000000000     0.00000000000000    -0.00000000000000     0.00000000000000    -0.00000000000000
   18    -0.00000000000000     0.00000000000000    -0.00000000000000     0.00000000000000    -0.00000000000000
   19    -0.05153096491515     0.00000000000000    -0.00000000000000     0.00515097706033    -0.00000000000000
   20     0.00957688840323    -0.00000000000000     0.00000000000000    -0.00095729494985     0.00000000000000
   21     0.00000000000000    -0.00000000000000     0.00000000000000    -0.00000000000000     0.00000000000000
   22    -0.07440102459494     0.00000000000000    -0.00000000000000     0.00743704239936    -0.00000000000000
   23     0.01382722622805    -0.00000000000000     0.00000000000000    -0.00138215391903     0.00000000000000
   24     0.00000000000000    -0.00000000000000     0.00000000000000    -0.00000000000000     0.00000000000000
   25    -0.00133528638193     0.00000000000000    -0.00000000000000     0.00013347371883    -0.00000000000000
   26     0.00024815930940    -0.00000000000000     0.00000000000000    -0.00002480572433     0.00000000000000
   27     0.00000000000000    -0.00000000000000     0.00000000000000    -0.00000000000000     0.00000000000000
   28     0.00000000000000    -0.00000000000000     0.00000000000000    -0.00000000000000     0.00000000000000

                26                  27                  28

    1     0.00000000000000    -0.00000000000000     0.00000000000000
    2    -0.00000000000000     0.00000000000000    -0.00000000000000
    3    -0.00000000000000     0.00000000000000    -0.00000000000000
    4    -0.00000000000000     0.00000000000000    -0.00000000000000
    5    -0.00000000000000     0.00000000000000    -0.00000000000000
    6     0.00000000000000    -0.00000000000000     0.00000000000000
    7    -0.00000000000000     0.00000000000000    -0.00000000000000
    8    -0.00000000000000     0.00000000000000    -0.00000000000000
    9     0.00000000000000    -0.00000000000000     0.00000000000000
   10    -0.00000000000000     0.00000000000000    -0.00000000000000
   11     0.00000000000000    -0.00000000000000     0.00000000000000
   12    -0.00000000000000     0.00000000000000    -0.00000000000000
   13     0.00000000000000    -0.00000000000000     0.00000000000000
   14    -0.00000000000000     0.00000000000000    -0.00000000000000
   15     0.00000000000000    -0.00000000000000     0.00000000000000
   16    -0.00000000000000     0.00000000000000    -0.00000000000000
   17     0.00000000000000    -0.00000000000000     0.00000000000000
   18     0.00000000000000    -0.00000000000000     0.00000000000000
   19     0.00000000000000    -0.00000000000000     0.00000000000000
   20    -0.00000000000000     0.00000000000000    -0.00000000000000
   21    -0.00000000000000     0.00000000000000    -0.00000000000000
   22     0.00000000000000    -0.00000000000000     0.00000000000000
   23    -0.00000000000000     0.00000000000000    -0.00000000000000
   24    -0.00000000000000     0.00000000000000    -0.00000000000000
   25     0.00000000000000    -0.00000000000000     0.00000000000000
   26    -0.00000000000000     0.00000000000000    -0.00000000000000
   27    -0.00000000000000     0.00000000000000    -0.00000000000000
   28    -0.00000000000000     0.00000000000000    -0.00000000000000



  ## TempMatrix (Symmetry 0) ##
  Irrep: 1 Size: 28 x 28

                 1                   2                   3                   4                   5

    1     3.55275474064419    -1.16624225830074     0.44969522477676     0.01727652230620     0.00000000000000
    2    -1.16684480662576     0.90554831214995     0.28669073196379     0.36559745039356     0.00000000000000
    3     0.44911641454184     0.28445420777477     0.47081033940743     0.34417772317805     0.00000000000000
    4     0.01491390428856     0.36824747498731     0.34649229231637     0.45855125142329    -0.00000000000000
    5     0.00000000000000     0.00000000000000     0.00000000000000    -0.00000000000000     0.33531162517692
    6     0.00000000000000    -0.00000000000000    -0.00000000000000     0.00000000000000    -0.00004961884263
    7     0.00980513108713     0.21204595175160     0.28906074064327     0.30027004518973    -0.00000000000000
    8     0.00000000000000     0.00000000000000     0.00000000000000    -0.00000000000000     0.20649361750261
    9    -0.00000000000000    -0.00000000000000    -0.00000000000000     0.00000000000000     0.00010930085388
   10     0.00554272559425     0.17236042221695     0.21002671823511     0.27301433545372    -0.00000000000000
   11    -0.00000000000000     0.00000000000000     0.00000000000000    -0.00000000000000     0.17552155546667
   12    -0.00000000000000     0.00000000000000     0.00000000000000     0.00000000000000     0.00069189041486
   13     0.00011436808056    -0.00054626553111    -0.00056116071308    -0.00069027548734     0.00000000000000
   14    -0.00004403077565     0.00021030776182     0.00021604228506     0.00026575041718    -0.00000000000000
   15     0.00282857353371     0.12184228733592     0.21599066850697     0.22532553936230     0.00000000000000
   16     0.04254870662729     0.29460542643335     0.39697178597646     0.38961882294448    -0.00000000000000
   17     0.19882279470189     0.35186140228882     0.54511536302529     0.49123602196814     0.00000000000000
   18    -0.08123054167827    -0.36810091498473    -0.26866285908240    -0.34898696402858     0.00000000000000
   19    -0.00000000000000     0.00000000000000     0.00000000000000    -0.00000000000000     0.26367551397909
   20    -0.00000000000000    -0.00000000000000    -0.00000000000000     0.00000000000000    -0.00025323927309
   21    -0.42583991886581    -0.28235229006111    -0.34984296747041    -0.30024679162138    -0.00000000000000
   22    -0.00000000000000     0.00000000000000     0.00000000000000    -0.00000000000000     0.26180487318549
   23     0.00000000000000    -0.00000000000000    -0.00000000000000     0.00000000000000     0.00029660134936
   24     0.15028345942703     0.12275341255886     0.11863548200803     0.15492127879643    -0.00000000000000
   25     0.00000000000000    -0.00000000000000    -0.00000000000000     0.00000000000000    -0.13424497320662
   26     0.00000000000000    -0.00000000000000    -0.00000000000000    -0.00000000000000    -0.00035362289323
   27    -0.00002117609263    -0.00052340504000    -0.00040563395954    -0.00044539821450     0.00000000000000
   28     0.00000815262247     0.00020150665971     0.00015616575693     0.00017147466987    -0.00000000000000

                 6                   7                   8                   9                  10

    1    -0.00000000000000     0.01022855981440     0.00000000000000    -0.00000000000000     0.00564945191018
    2    -0.00000000000000     0.21184322801667     0.00000000000000    -0.00000000000000     0.17942683145745
    3    -0.00000000000000     0.28842024141915     0.00000000000000    -0.00000000000000     0.21499263868656
    4     0.00000000000000     0.30051518427604    -0.00000000000000     0.00000000000000     0.27762660405084
    5    -0.00004961884263    -0.00000000000000     0.21198061752778    -0.00001163883032    -0.00000000000000
    6     0.33505385947977     0.00000000000000    -0.00001163883032     0.21192015478718     0.00000000000000
    7     0.00000000000000     0.38170446745080    -0.00000000000000     0.00000000000000     0.28136881930700
    8     0.00010930085388    -0.00000000000000     0.18107262827000     0.00012917589946    -0.00000000000000
    9     0.20706142620806     0.00000000000000     0.00012917589946     0.18174368615884     0.00000000000000
   10     0.00000000000000     0.28097836852488    -0.00000000000000     0.00000000000000     0.32266741990448
   11     0.00069189041486    -0.00000000000000     0.15452773197352     0.00057300486276    -0.00000000000000
   12     0.17911586774190     0.00000000000000     0.00057300486276     0.15750444384544     0.00000000000000
   13     0.00000000000000    -0.00063581671188     0.00000000000000     0.00000000000000    -0.00035453845896
   14     0.00000000000000     0.00024478423402    -0.00000000000000     0.00000000000000     0.00013649440709
   15     0.00000000000000     0.34203752725474     0.00000000000000    -0.00000000000000     0.48071686698766
   16     0.00000000000000     0.49229660191875    -0.00000000000000     0.00000000000000     0.32898109672607
   17    -0.00000000000000     0.61743728041942     0.00000000000000    -0.00000000000000     0.47160253444932
   18    -0.00000000000000    -0.02129742437231     0.00000000000000    -0.00000000000000    -0.18026300859525
   19    -0.00025323927309    -0.00000000000000     0.27695444934385    -0.00028762678469    -0.00000000000000
   20     0.26235995734139     0.00000000000000    -0.00028762678469     0.27546025248737     0.00000000000000
   21     0.00000000000000    -0.03169488899983    -0.00000000000000     0.00000000000000    -0.09166183949301
   22     0.00029660134936    -0.00000000000000     0.26261546830417     0.00028994465098    -0.00000000000000
   23     0.26334569214749     0.00000000000000     0.00028994465098     0.26412170628028     0.00000000000000
   24     0.00000000000000     0.02303566431995    -0.00000000000000     0.00000000000000     0.05606213042393
   25    -0.00035362289323     0.00000000000000    -0.08120770362254    -0.00033993316990     0.00000000000000
   26    -0.13608201427360    -0.00000000000000    -0.00033993316990    -0.08297362773292    -0.00000000000000
   27    -0.00000000000000    -0.00011731854051     0.00000000000000     0.00000000000000    -0.00013535237743
   28     0.00000000000000     0.00004516667860    -0.00000000000000     0.00000000000000     0.00005210955833

                11                  12                  13                  14                  15

    1    -0.00000000000000     0.00000000000000     0.00002455735058    -0.00000945437913     0.00285976136381
    2     0.00000000000000    -0.00000000000000    -0.00006218784144     0.00002394181035     0.12220945895444
    3     0.00000000000000    -0.00000000000000    -0.00012832411480     0.00004940373469     0.21620863155371
    4    -0.00000000000000     0.00000000000000    -0.00040779298577     0.00015699696437     0.22563935274729
    5     0.18113011870292     0.00010312052710     0.00000000000000    -0.00000000000000     0.00000000000000
    6     0.00010312052710     0.18166582113268     0.00000000000000     0.00000000000000    -0.00000000000000
    7    -0.00000000000000     0.00000000000000    -0.00034466796641     0.00013269434819     0.34217409251019
    8     0.15560881621593     0.00017407310089     0.00000000000000    -0.00000000000000     0.00000000000000
    9     0.00017407310089     0.15651311127463     0.00000000000000     0.00000000000000    -0.00000000000000
   10    -0.00000000000000     0.00000000000000     0.00004461124593    -0.00001717496483     0.48076863614394
   11     0.22000729351491     0.00041772434067    -0.00000000000000     0.00000000000000    -0.00000000000000
   12     0.00041772434067     0.22217733618797    -0.00000000000000    -0.00000000000000     0.00000000000000
   13    -0.00000000000000    -0.00000000000000     0.08261698703379    -0.00000000000000    -0.00002172588200
   14     0.00000000000000    -0.00000000000000     0.00000000000000     0.08261698703379     0.00000836428688
   15    -0.00000000000000     0.00000000000000     0.00004083555900    -0.00001572135624     4.87932236175642
   16    -0.00000000000000     0.00000000000000    -0.00000253511603     0.00000097599894    -1.57161261365908
   17    -0.00000000000000     0.00000000000000    -0.00022018498764     0.00008476941945     0.67091873271447
   18     0.00000000000000    -0.00000000000000     0.00013999603218    -0.00005389732742    -0.00605762109590
   19     0.33597801905964    -0.00031069732163    -0.00000000000000    -0.00000000000000    -0.00000000000000
   20    -0.00031069732163     0.33436397271208     0.00000000000000    -0.00000000000000     0.00000000000000
   21     0.00000000000000    -0.00000000000000     0.00023363120163    -0.00008994610187    -0.00519652683881
   22     0.27226214471500     0.00026388614562    -0.00000000000000    -0.00000000000000    -0.00000000000000
   23     0.00026388614562     0.27363301095636     0.00000000000000     0.00000000000000     0.00000000000000
   24    -0.00000000000000     0.00000000000000    -0.00007043547353     0.00002711708125     0.00194416303509
   25    -0.14121092565543    -0.00035414948985     0.00000000000000    -0.00000000000000    -0.00000000000000
   26    -0.00035414948985    -0.14305070234737     0.00000000000000     0.00000000000000    -0.00000000000000
   27     0.00000000000000    -0.00000000000000     0.05442148065835     0.00000000000000     0.00023188789993
   28    -0.00000000000000    -0.00000000000000    -0.00000000000000     0.05442148065835    -0.00008927494497

                16                  17                  18                  19                  20

    1     0.04289392548181     0.19943888210730    -0.08179276365864    -0.00000000000000     0.00000000000000
    2     0.29855089606650     0.35419971819800    -0.37606900945474     0.00000000000000    -0.00000000000000
    3     0.39924155479278     0.54572505783527    -0.27225839238486     0.00000000000000    -0.00000000000000
    4     0.39289145015107     0.49323452864156    -0.35631108253349    -0.00000000000000     0.00000000000000
    5    -0.00000000000000     0.00000000000000     0.00000000000000     0.26765867403813     0.00006130851171
    6     0.00000000000000    -0.00000000000000    -0.00000000000000     0.00006130851171     0.26797716657898
    7     0.49328384475167     0.61782071469793    -0.02100798805509    -0.00000000000000     0.00000000000000
    8    -0.00000000000000     0.00000000000000     0.00000000000000     0.27363192093999     0.00022110862708
    9     0.00000000000000    -0.00000000000000    -0.00000000000000     0.00022110862708     0.27478056158511
   10     0.32909400873368     0.46988751907758    -0.17436407443915    -0.00000000000000     0.00000000000000
   11    -0.00000000000000     0.00000000000000     0.00000000000000     0.33225950879629     0.00071681086774
   12     0.00000000000000     0.00000000000000    -0.00000000000000     0.00071681086774     0.33598328071971
   13    -0.00080596675839    -0.00090930969604     0.00034935391326    -0.00000000000000    -0.00000000000000
   14     0.00031029061034     0.00035007679614    -0.00013449839940    -0.00000000000000     0.00000000000000
   15    -1.57189572066134     0.67062313754129    -0.00616575733332    -0.00000000000000     0.00000000000000
   16     1.68703160115875     0.79866978567372     0.01567802143328    -0.00000000000000    -0.00000000000000
   17     0.80014244612503     1.05404845210229    -0.03766485032330     0.00000000000000    -0.00000000000000
   18     0.01078705171821    -0.03931199845344     0.96684958188351     0.00000000000000    -0.00000000000000
   19    -0.00000000000000     0.00000000000000     0.00000000000000     0.93466897248820    -0.00107434359057
   20    -0.00000000000000    -0.00000000000000    -0.00000000000000    -0.00107434359057     0.92908784826323
   21    -0.02868400732066    -0.10584049014162     0.62300950841780     0.00000000000000    -0.00000000000000
   22     0.00000000000000     0.00000000000000     0.00000000000000     0.56543090662627     0.00034106383784
   23     0.00000000000000    -0.00000000000000    -0.00000000000000     0.00034106383784     0.56720270446112
   24     0.06001552970230     0.07850586759748    -0.11795442725324    -0.00000000000000     0.00000000000000
   25     0.00000000000000     0.00000000000000    -0.00000000000000    -0.07362695337529    -0.00076731337422
   26    -0.00000000000000    -0.00000000000000     0.00000000000000    -0.00076731337422    -0.07761308155496
   27    -0.00008475808781    -0.00016585235205     0.00086050605204     0.00000000000000    -0.00000000000000
   28     0.00003263117061     0.00006385179911    -0.00033128779235    -0.00000000000000    -0.00000000000000

                21                  22                  23                  24                  25

    1    -0.42657101670350    -0.00000000000000     0.00000000000000     0.15098826701364     0.00000000000000
    2    -0.28422541748806     0.00000000000000    -0.00000000000000     0.12046392551472    -0.00000000000000
    3    -0.34937195967394     0.00000000000000    -0.00000000000000     0.11695578311700     0.00000000000000
    4    -0.30328431180258    -0.00000000000000     0.00000000000000     0.15445662359660     0.00000000000000
    5    -0.00000000000000     0.26798854738647     0.00004475855793    -0.00000000000000    -0.13729923998903
    6     0.00000000000000     0.00004475855793     0.26822106431506     0.00000000000000    -0.00004761452636
    7    -0.03216820424092    -0.00000000000000     0.00000000000000     0.02370912640804     0.00000000000000
    8    -0.00000000000000     0.26149764415335     0.00023080872777    -0.00000000000000    -0.08154410078683
    9     0.00000000000000     0.00023080872777     0.26269667600236     0.00000000000000    -0.00008031043039
   10    -0.08482467881797    -0.00000000000000     0.00000000000000     0.05289647925327     0.00000000000000
   11     0.00000000000000     0.27051620122102     0.00074536673628    -0.00000000000000    -0.14121071255625
   12    -0.00000000000000     0.00074536673628     0.27438831846997     0.00000000000000    -0.00028842255919
   13     0.00037466359787     0.00000000000000    -0.00000000000000    -0.00006781995206     0.00000000000000
   14    -0.00014424242098    -0.00000000000000     0.00000000000000     0.00002611012687    -0.00000000000000
   15    -0.00508465833970    -0.00000000000000    -0.00000000000000     0.00161883525695     0.00000000000000
   16    -0.02554920105326     0.00000000000000    -0.00000000000000     0.05915559507544     0.00000000000000
   17    -0.10447468906522     0.00000000000000    -0.00000000000000     0.07846243397450     0.00000000000000
   18     0.61500567167632     0.00000000000000    -0.00000000000000    -0.10967177879283    -0.00000000000000
   19     0.00000000000000     0.56937592629726    -0.00060889897964    -0.00000000000000    -0.07465544080032
   20    -0.00000000000000    -0.00060889897964     0.56621274751940     0.00000000000000    -0.00002933328465
   21     0.59697507544510     0.00000000000000    -0.00000000000000    -0.12370451708757    -0.00000000000000
   22     0.00000000000000     0.47363274818445     0.00042229480523    -0.00000000000000    -0.07432694221403
   23    -0.00000000000000     0.00042229480523     0.47582653403493     0.00000000000000    -0.00016876702325
   24    -0.12802303098683    -0.00000000000000     0.00000000000000     0.32632542923695     0.00000000000000
   25    -0.00000000000000    -0.07389182641227    -0.00059834704754     0.00000000000000     0.30265973431308
   26     0.00000000000000    -0.00059834704754    -0.07700018879401    -0.00000000000000     0.00008327164173
   27     0.00067827002024     0.00000000000000    -0.00000000000000    -0.00031361788159     0.00000000000000
   28    -0.00026112841053    -0.00000000000000     0.00000000000000     0.00012074031948    -0.00000000000000

                26                  27                  28

    1     0.00000000000000     0.00000207705316    -0.00000079964848
    2    -0.00000000000000    -0.00015420228813     0.00005936661978
    3    -0.00000000000000    -0.00017992716986     0.00006927048885
    4    -0.00000000000000    -0.00021691256746     0.00008350956444
    5    -0.00004761452636     0.00000000000000    -0.00000000000000
    6    -0.13754659343242    -0.00000000000000     0.00000000000000
    7    -0.00000000000000    -0.00014240381564     0.00005482430437
    8    -0.00008031043039     0.00000000000000    -0.00000000000000
    9    -0.08196130669050    -0.00000000000000     0.00000000000000
   10    -0.00000000000000     0.00017106048095    -0.00006585688614
   11    -0.00028842255919    -0.00000000000000     0.00000000000000
   12    -0.14270904339406    -0.00000000000000    -0.00000000000000
   13     0.00000000000000     0.05461750416229    -0.00000000000000
   14     0.00000000000000     0.00000000000000     0.05461750416229
   15    -0.00000000000000     0.00031203146954    -0.00012012956381
   16    -0.00000000000000     0.00054192865701    -0.00020863810076
   17    -0.00000000000000     0.00007924904602    -0.00003051023458
   18     0.00000000000000     0.00043303703425    -0.00016671571657
   19    -0.00002933328465     0.00000000000000    -0.00000000000000
   20    -0.07480782473690    -0.00000000000000    -0.00000000000000
   21    -0.00000000000000     0.00037743605853    -0.00014530979566
   22    -0.00016876702325     0.00000000000000    -0.00000000000000
   23    -0.07520367264747    -0.00000000000000     0.00000000000000
   24    -0.00000000000000    -0.00023424148639     0.00009018105650
   25     0.00008327164173     0.00000000000000    -0.00000000000000
   26     0.30309232345958     0.00000000000000     0.00000000000000
   27     0.00000000000000     0.26598397089180    -0.00000000000000
   28     0.00000000000000     0.00000000000000     0.26598397089180




  Element (0,2)
 det U = -1.000000, det V = 1.000000
 det U = 1.000000, det V = -1.000000
  Corresponding orbitals:

  Alpha:  MO = 6, s = 1.804152e-17
  Beta: 
  Stilde = 0.997588

  Noncoincidences: 1a + 0b 
  ## D_BA (Symmetry 0) ##
  Irrep: 1 Size: 28 x 28

                 1                   2                   3                   4                   5

    1    -0.00000000000000     0.00000000000000     0.00000000000000    -0.00000000000000    -0.00000000000000
    2     0.00000000000000    -0.00000000000000    -0.00000000000000     0.00000000000000     0.00000000000000
    3     0.00000000000000    -0.00000000000000    -0.00000000000000     0.00000000000000     0.00000000000000
    4     0.00000000000000    -0.00000000000000    -0.00000000000000     0.00000000000000     0.00000000000000
    5     0.00049398219113    -0.02369585116142    -0.04684359659140     0.03655198976603     0.00000000000000
    6     0.00265800100075    -0.12750175458055    -0.25205428222769     0.19667758701008     0.00000000000000
    7     0.00000000000000    -0.00000000000000    -0.00000000000000     0.00000000000000     0.00000000000000
    8     0.00086442132323    -0.04146546046329    -0.08197178861340     0.06396246651672     0.00000000000000
    9     0.00465124610453    -0.22311580738518    -0.44107075129381     0.34416686079876     0.00000000000000
   10     0.00000000000000    -0.00000000000000    -0.00000000000000     0.00000000000000     0.00000000000000
[...]
    7     0.00000000000000     0.38103069657200    -0.00000000000000     0.00000000000000     0.28062151844529
    8     0.00012190468047    -0.00000000000000     0.17978508164515     0.00000000000000    -0.00000000000000
    9     0.21153409587259     0.00000000000000     0.00000000000000     0.17978508164515     0.00000000000000
   10     0.00000000000000     0.28062151844529    -0.00000000000000     0.00000000000000     0.32122153684905
   11     0.00060449045062    -0.00000000000000     0.15393089452834     0.00039341270726    -0.00000000000000
   12     0.18190225736806     0.00000000000000     0.00039341270726     0.15597464031897     0.00000000000000
   13     0.00000000000000    -0.00028963615515     0.00000000000000     0.00000000000000    -0.00039492002208
   14     0.00000000000000     0.00011150755093    -0.00000000000000     0.00000000000000     0.00015204097863
   15     0.00000000000000     0.34178092618566     0.00000000000000     0.00000000000000     0.48031681055642
   16     0.00000000000000     0.49177696235205    -0.00000000000000     0.00000000000000     0.32704294999753
   17    -0.00000000000000     0.61711757931861     0.00000000000000    -0.00000000000000     0.46879039678937
   18    -0.00000000000000    -0.02151511694031     0.00000000000000    -0.00000000000000    -0.17243739062440
   19    -0.00031905454102    -0.00000000000000     0.27518788883128    -0.00050539718070    -0.00000000000000
   20     0.26662240541169     0.00000000000000    -0.00050539718070     0.27256239315819     0.00000000000000
   21     0.00000000000000    -0.03255536371006    -0.00000000000000     0.00000000000000    -0.08440357326652
   22     0.00025806001360    -0.00000000000000     0.26081330539444     0.00005698640008    -0.00000000000000
   23     0.26816052903819     0.00000000000000     0.00005698640008     0.26110934493038     0.00000000000000
   24     0.00000000000000     0.02330209780747    -0.00000000000000     0.00000000000000     0.05320742159198
   25    -0.00031324459079     0.00000000000000    -0.08111689525284    -0.00025634929616     0.00000000000000
   26    -0.13842408028112    -0.00000000000000    -0.00025634929616    -0.08244860819778    -0.00000000000000
   27    -0.00000000000000     0.00002396978185     0.00000000000000    -0.00000000000000    -0.00029640608956
   28     0.00000000000000    -0.00000922816997    -0.00000000000000     0.00000000000000     0.00011411392031

                11                  12                  13                  14                  15

    1    -0.00000000000000    -0.00000000000000    -0.00008947461400     0.00003444699462     0.00286524125700
    2     0.00000000000000    -0.00000000000000     0.00048706467440    -0.00018751591616     0.12187842522525
    3     0.00000000000000    -0.00000000000000     0.00043347224665    -0.00016688326979     0.21586858998396
    4    -0.00000000000000     0.00000000000000     0.00028333581216    -0.00010908197040     0.22524642247150
    5     0.18190225736806    -0.00060449045062     0.00000000000000    -0.00000000000000     0.00000000000000
    6    -0.00060449045062     0.17876198052617     0.00000000000000     0.00000000000000    -0.00000000000000
    7    -0.00000000000000     0.00000000000000     0.00028963615515    -0.00011150755093     0.34178092618566
    8     0.15597464031897    -0.00039341270726     0.00000000000000    -0.00000000000000     0.00000000000000
    9    -0.00039341270726     0.15393089452834     0.00000000000000     0.00000000000000    -0.00000000000000
   10    -0.00000000000000     0.00000000000000     0.00039492002208    -0.00015204097863     0.48031681055642
   11     0.22069161552380    -0.00000000000000    -0.00000000000000     0.00000000000000    -0.00000000000000
   12    -0.00000000000000     0.22069161552380    -0.00000000000000    -0.00000000000000     0.00000000000000
   13    -0.00000000000000    -0.00000000000000     0.08367312541122     0.00000067214609    -0.00006248105078
   14     0.00000000000000    -0.00000000000000     0.00000067214609     0.08367461251155     0.00002405469355
   15     0.00000000000000     0.00000000000000     0.00006248105078    -0.00002405469355     4.87842223629535
   16    -0.00000000000000     0.00000000000000     0.00080080631104    -0.00030830388032    -1.57222602620199
   17    -0.00000000000000     0.00000000000000     0.00068795629495    -0.00026485754707     0.67015084411288
   18     0.00000000000000    -0.00000000000000    -0.00020658313844     0.00007953281875    -0.00628522644581
   19     0.33617999101150    -0.00102499601315    -0.00000000000000     0.00000000000000    -0.00000000000000
   20    -0.00102499601315     0.33085522328384     0.00000000000000     0.00000000000000     0.00000000000000
   21     0.00000000000000    -0.00000000000000    -0.00014089259574     0.00005424249706    -0.00519813743558
   22     0.27262598871163    -0.00048014422202     0.00000000000000    -0.00000000000000    -0.00000000000000
   23    -0.00048014422202     0.27013168002627     0.00000000000000     0.00000000000000     0.00000000000000
   24    -0.00000000000000     0.00000000000000    -0.00000059044098     0.00000022731495     0.00121496641706
   25    -0.14158656887494    -0.00006295446601     0.00000000000000    -0.00000000000000    -0.00000000000000
   26    -0.00006295446601    -0.14191361200939     0.00000000000000     0.00000000000000     0.00000000000000
   27     0.00000000000000    -0.00000000000000     0.05444971818567     0.00000028292173    -0.00007982557057
   28     0.00000000000000    -0.00000000000000     0.00000028292173     0.05445034414037     0.00003073219181

                16                  17                  18                  19                  20

    1     0.04292265942435     0.19953391106205    -0.08185861867682    -0.00000000000000    -0.00000000000000
    2     0.29594537703355     0.35457004274663    -0.37179805950994     0.00000000000000    -0.00000000000000
    3     0.39698578979502     0.54563808865516    -0.26967582741844     0.00000000000000    -0.00000000000000
    4     0.39030723823666     0.49287335944161    -0.35271283898113    -0.00000000000000     0.00000000000000
    5    -0.00000000000000     0.00000000000000     0.00000000000000     0.26662240541169     0.00031905454102
    6     0.00000000000000    -0.00000000000000    -0.00000000000000     0.00031905454102     0.26827986680820
    7     0.49177696235205     0.61711757931861    -0.02151511694031    -0.00000000000000     0.00000000000000
    8    -0.00000000000000     0.00000000000000     0.00000000000000     0.27256239315819     0.00050539718070
    9     0.00000000000000    -0.00000000000000    -0.00000000000000     0.00050539718070     0.27518788883128
   10     0.32704294999753     0.46879039678937    -0.17243739062440    -0.00000000000000     0.00000000000000
   11    -0.00000000000000     0.00000000000000     0.00000000000000     0.33085522328384     0.00102499601315
   12     0.00000000000000     0.00000000000000    -0.00000000000000     0.00102499601315     0.33617999101150
   13    -0.00080080631104    -0.00068795629495     0.00020658313844    -0.00000000000000    -0.00000000000000
   14     0.00030830388032     0.00026485754707    -0.00007953281875     0.00000000000000     0.00000000000000
   15    -1.57222602620199     0.67015084411288    -0.00628522644581    -0.00000000000000     0.00000000000000
   16     1.68395144165132     0.79739038905082     0.01436912965611    -0.00000000000000     0.00000000000000
   17     0.79739038905082     1.05309877033773    -0.03854705311874     0.00000000000000    -0.00000000000000
   18     0.01436912965611    -0.03854705311874     0.95368419155362     0.00000000000000    -0.00000000000000
   19    -0.00000000000000     0.00000000000000     0.00000000000000     0.93092772053467    -0.00000000000000
   20     0.00000000000000    -0.00000000000000    -0.00000000000000     0.00000000000000     0.93092772053467
   21    -0.02630925618369    -0.10596214767829     0.61534343849493     0.00000000000000    -0.00000000000000
   22     0.00000000000000     0.00000000000000     0.00000000000000     0.56331133194562     0.00094692782663
   23     0.00000000000000    -0.00000000000000    -0.00000000000000     0.00094692782663     0.56823054203715
   24     0.05781120355115     0.07803667926085    -0.11706323436440    -0.00000000000000     0.00000000000000
   25     0.00000000000000     0.00000000000000    -0.00000000000000    -0.07289366509556    -0.00073797103431
   26    -0.00000000000000    -0.00000000000000     0.00000000000000    -0.00073797103431    -0.07672736229735
   27    -0.00062098506856    -0.00024440243870     0.00041510572371     0.00000000000000    -0.00000000000000
   28     0.00023907417264     0.00009409294004    -0.00015981230867    -0.00000000000000    -0.00000000000000

                21                  22                  23                  24                  25

    1    -0.42690762159780     0.00000000000000    -0.00000000000000     0.15075747584463    -0.00000000000000
    2    -0.28773439896306     0.00000000000000    -0.00000000000000     0.12501127943977    -0.00000000000000
    3    -0.35185671633337     0.00000000000000    -0.00000000000000     0.11976763002264    -0.00000000000000
    4    -0.30497180027814    -0.00000000000000     0.00000000000000     0.15744198493235     0.00000000000000
    5    -0.00000000000000     0.26816052903819    -0.00025806001360    -0.00000000000000    -0.13842408028112
    6     0.00000000000000    -0.00025806001360     0.26681992906066     0.00000000000000     0.00031324459079
    7    -0.03255536371006    -0.00000000000000     0.00000000000000     0.02330209780747     0.00000000000000
    8    -0.00000000000000     0.26110934493038    -0.00005698640008    -0.00000000000000    -0.08244860819778
    9    -0.00000000000000    -0.00005698640008     0.26081330539444     0.00000000000000     0.00025634929616
   10    -0.08440357326652    -0.00000000000000     0.00000000000000     0.05320742159198     0.00000000000000
   11     0.00000000000000     0.27013168002627     0.00048014422202    -0.00000000000000    -0.14191361200939
   12    -0.00000000000000     0.00048014422202     0.27262598871163     0.00000000000000     0.00006295446601
   13     0.00014089259574     0.00000000000000    -0.00000000000000     0.00000059044098     0.00000000000000
   14    -0.00005424249706    -0.00000000000000     0.00000000000000    -0.00000022731495    -0.00000000000000
   15    -0.00519813743558    -0.00000000000000    -0.00000000000000     0.00121496641706     0.00000000000000
   16    -0.02630925618369     0.00000000000000     0.00000000000000     0.05781120355115     0.00000000000000
   17    -0.10596214767829     0.00000000000000    -0.00000000000000     0.07803667926085     0.00000000000000
   18     0.61534343849493     0.00000000000000    -0.00000000000000    -0.11706323436439    -0.00000000000000
   19     0.00000000000000     0.56823054203715    -0.00094692782663    -0.00000000000000    -0.07672736229734
   20    -0.00000000000000    -0.00094692782663     0.56331133194562    -0.00000000000000     0.00073797103431
   21     0.59926047326721     0.00000000000000    -0.00000000000000    -0.13001411199316    -0.00000000000000
   22     0.00000000000000     0.47280963410644    -0.00000000000000    -0.00000000000000    -0.07597035285540
   23    -0.00000000000000    -0.00000000000000     0.47280963410644    -0.00000000000000     0.00042699951311
   24    -0.13001411199316    -0.00000000000000     0.00000000000000     0.32662976864572     0.00000000000000
   25    -0.00000000000000    -0.07375212644479    -0.00042699951311     0.00000000000000     0.30165001509576
   26     0.00000000000000    -0.00042699951311    -0.07597035285540    -0.00000000000000     0.00000000000000
   27     0.00030188348350     0.00000000000000    -0.00000000000000    -0.00008776156445     0.00000000000000
   28    -0.00011622267218    -0.00000000000000     0.00000000000000     0.00003378748455    -0.00000000000000

                26                  27                  28

    1     0.00000000000000     0.00002397204838    -0.00000922904257
    2    -0.00000000000000     0.00037441249188    -0.00014414574722
    3     0.00000000000000     0.00022738805658    -0.00008754254208
    4    -0.00000000000000     0.00023337430132    -0.00008984719735
    5     0.00031324459079     0.00000000000000    -0.00000000000000
    6    -0.13679680108541     0.00000000000000    -0.00000000000000
    7    -0.00000000000000    -0.00002396978185     0.00000922816997
    8     0.00025634929616     0.00000000000000    -0.00000000000000
    9    -0.08111689525284     0.00000000000000     0.00000000000000
   10    -0.00000000000000     0.00029640608956    -0.00011411392031
   11     0.00006295446601    -0.00000000000000     0.00000000000000
   12    -0.14158656887494    -0.00000000000000    -0.00000000000000
   13     0.00000000000000     0.05444971818567     0.00000028292173
   14     0.00000000000000     0.00000028292173     0.05445034414037
   15     0.00000000000000     0.00007982557057    -0.00003073219181
   16    -0.00000000000000     0.00062098506856    -0.00023907417264
   17    -0.00000000000000     0.00024440243870    -0.00009409294004
   18     0.00000000000000    -0.00041510572371     0.00015981230867
   19     0.00073797103431     0.00000000000000    -0.00000000000000
   20    -0.07289366509556     0.00000000000000    -0.00000000000000
   21    -0.00000000000000    -0.00030188348350     0.00011622267218
   22     0.00042699951311     0.00000000000000    -0.00000000000000
   23    -0.07375212644479     0.00000000000000    -0.00000000000000
   24    -0.00000000000000     0.00008776156445    -0.00003378748455
   25    -0.00000000000000     0.00000000000000    -0.00000000000000
   26     0.30165001509576     0.00000000000000     0.00000000000000
   27     0.00000000000000     0.26555431885201     0.00000054268642
   28     0.00000000000000     0.00000054268642     0.26555551952725




  Element (2,2)
 det U = 1.000000, det V = 1.000000
 det U = -1.000000, det V = -1.000000
  Corresponding orbitals:

  Alpha: 
  Beta: 
  Stilde = 1.000000

  Noncoincidences: 0a + 0b 

  Element (2,3)
 det U = 1.000000, det V = -1.000000
 det U = -1.000000, det V = -1.000000
  Corresponding orbitals:

  Alpha:  MO = 6, s = 1.804152e-17
  Beta:  MO = 6, s = 3.038302e-16
  Stilde = -0.999316

  Noncoincidences: 1a + 1b 

  Element (2,4)
 det U = -1.000000, det V = -1.000000
 det U = 1.000000, det V = 1.000000
  Corresponding orbitals:

  Alpha:  MO = 6, s = 1.804152e-17
  Beta:  MO = 6, s = 1.804152e-17
  Stilde = 1.000000

  Noncoincidences: 1a + 1b 

  Element (3,0)
 det U = -1.000000, det V = -1.000000
 det U = -1.000000, det V = 1.000000
  Corresponding orbitals:

  Alpha: 
  Beta:  MO = 6, s = 3.038302e-16
  Stilde = -0.997588

  Noncoincidences: 0a + 1b 

  Element (3,1)
 det U = -1.000000, det V = 1.000000
 det U = -1.000000, det V = 1.000000
  Corresponding orbitals:

  Alpha:  MO = 6, s = 3.038302e-16
  Beta:  MO = 6, s = 3.038302e-16
  Stilde = 1.000000

  Noncoincidences: 1a + 1b 

  Element (3,2)
 det U = 1.000000, det V = -1.000000
 det U = -1.000000, det V = -1.000000
  Corresponding orbitals:

  Alpha:  MO = 6, s = 1.804152e-17
  Beta:  MO = 6, s = 3.038302e-16
  Stilde = -0.999316

  Noncoincidences: 1a + 1b 

  Element (3,3)
 det U = 1.000000, det V = 1.000000
 det U = -1.000000, det V = -1.000000
  Corresponding orbitals:

  Alpha: 
  Beta: 
  Stilde = 1.000000

  Noncoincidences: 0a + 0b 

  Element (3,4)
 det U = -1.000000, det V = 1.000000
 det U = 1.000000, det V = -1.000000
  Corresponding orbitals:

  Alpha: 
  Beta:  MO = 6, s = 1.283153e-16
  Stilde = 0.999316

  Noncoincidences: 0a + 1b 

  Element (4,0)
 det U = 1.000000, det V = -1.000000
 det U = -1.000000, det V = 1.000000
  Corresponding orbitals:

  Alpha: 
  Beta:  MO = 6, s = 1.804152e-17
  Stilde = 0.997588

  Noncoincidences: 0a + 1b 

  Element (4,1)
 det U = -1.000000, det V = -1.000000
 det U = 1.000000, det V = -1.000000
  Corresponding orbitals:

  Alpha:  MO = 6, s = 3.038302e-16
  Beta:  MO = 6, s = 1.804152e-17
  Stilde = -0.999316

  Noncoincidences: 1a + 1b 

  Element (4,2)
 det U = 1.000000, det V = 1.000000
 det U = -1.000000, det V = -1.000000
  Corresponding orbitals:

  Alpha:  MO = 6, s = 1.804152e-17
  Beta:  MO = 6, s = 1.804152e-17
  Stilde = 1.000000

  Noncoincidences: 1a + 1b 

  Element (4,3)
 det U = -1.000000, det V = 1.000000
 det U = 1.000000, det V = -1.000000
  Corresponding orbitals:

  Alpha: 
  Beta:  MO = 6, s = 1.008850e-16
  Stilde = 0.999316

  Noncoincidences: 0a + 1b 

  Element (4,4)
 det U = -1.000000, det V = -1.000000
 det U = 1.000000, det V = 1.000000
  Corresponding orbitals:

  Alpha: 
  Beta: 
  Stilde = 1.000000

  Noncoincidences: 0a + 0b 
  ## Overlap matrix (Symmetry 0) ##
  Irrep: 1 Size: 5 x 5

                 1                   2                   3                   4                   5

    1     0.99999999999997     0.00000000000000     0.00000000000000     0.00000000000000     0.00000000000000
    2     0.00000000000000     0.99999999999997     0.00000000000000     0.00000000000000     0.00000000000000
    3     0.00000000000000     0.00000000000000     1.00000000000000     0.00000000000000     0.00000000000000
    4     0.00000000000000     0.00000000000000     0.00000000000000     0.99999999999997     0.00000000000000
    5     0.00000000000000     0.00000000000000     0.00000000000000     0.00000000000000     1.00000000000000



  ## Hamiltonian (Symmetry 0) ##
  Irrep: 1 Size: 5 x 5

                 1                   2                   3                   4                   5

    1  -112.74929280378362     0.00000000000000    -0.00000000000000     0.00000000000000    -0.00000000000000
    2     0.00000000000000  -112.44704791363820     0.00000000000000     0.05777786566025     0.00000000000000
    3    -0.00000000000000    -0.00000000000000  -112.44704791364205     0.00000000000000     0.05777786566025
    4     0.00000000000000     0.05777786566025     0.00000000000000  -112.44704791363820     0.00000000000000
    5    -0.00000000000000     0.00000000000000     0.05777786566025    -0.00000000000000  -112.44704791364207



  ## S2 (Symmetry 0) ##
  Irrep: 1 Size: 5 x 5

                 1                   2                   3                   4                   5

    1     0.00000000000000     0.00000000000000     0.00000000000000     0.00000000000000     0.00000000000000
    2     0.00000000000000     0.00000000000000     0.00000000000000     0.00000000000000     0.00000000000000
    3     0.00000000000000     0.00000000000000     0.00000000000000     0.00000000000000     0.00000000000000
    4     0.00000000000000     0.00000000000000     0.00000000000000     0.00000000000000     0.00000000000000
    5     0.00000000000000     0.00000000000000     0.00000000000000     0.00000000000000     0.00000000000000




       ==> NOCI Excited State Information <==

    ----------------------------------------------------
      State       Energy (Eh)    Omega (eV)   Osc. Str.
    ----------------------------------------------------
     @NOCI-0          -112.749292803784      0.0000      0.0000
     @NOCI-1          -112.504825779302      6.6523      0.0000
     @NOCI-2          -112.504825779298      6.6523      0.0000
     @NOCI-3          -112.389270047982      9.7967      0.0000
     @NOCI-4          -112.389270047978      9.7967      0.0000
    ----------------------------------------------------

       ==> OCDFT Excited State Information <==

    ----------------------------------------------------
      State       Energy (Eh)    Omega (eV)   Osc. Str.
    ----------------------------------------------------
    ----------------------------------------------------

*** PSI4 exiting successfully. Buy a developer a beer!
