    -----------------------------------------------------------------------
          PSI4: An Open-Source Ab Initio Electronic Structure Package
                              PSI 4.0 Driver

               Git: Rev {master} 239716821edc564e7d72ede23ba5dcc9ca686c8d

    J. M. Turney, A. C. Simmonett, R. M. Parrish, E. G. Hohenstein,
    F. A. Evangelista, J. T. Fermann, B. J. Mintz, L. A. Burns, J. J. Wilke,
    M. L. Abrams, N. J. Russ, M. L. Leininger, C. L. Janssen, E. T. Seidl,
    W. D. Allen, H. F. Schaefer, R. A. King, E. F. Valeev, C. D. Sherrill,
    and T. D. Crawford, WIREs Comput. Mol. Sci. 2, 556-565 (2012)
    (doi: 10.1002/wcms.93)

                         Additional Contributions by
    A. E. DePrince, M. Saitow, U. Bozkaya, A. Yu. Sokolov
    -----------------------------------------------------------------------

    Process ID:  29794
    PSI4DATADIR: /home/prakash/psi4/lib
    Memory level set to 256.000 MB

  ==> Input File <==

--------------------------------------------------------------------------
#NOCI with OCDFT determinant CO val excitation energy
#sys.path.insert(0, './..')
sys.path.insert(0, '/home/prakash')
import ocdft 

molecule h2o {
C       0.0000  0.0000  0.0000
O       0.0000  0.0000  1.1282  
symmetry c1
}


set {
  basis cc-pvdz
  df_scf_guess false
  scf_type pk
#  e_convergence 6 
  d_convergence 1
  maxiter 100
}

set reference uks
set cdft {
  cdft_exc_type core    
  nroots 2
  cdft_spin_adapt_ci false
  cdft_exc_method chp
  cdft_num_project_out 5
  cdft_project_out HP
}

set dft_functional hfexch
energy('ocdft')


--------------------------------------------------------------------------

*** tstart() called on master
*** at Fri Sep  4 13:29:40 2015

/home/prakash/cdft/cdft.so loaded.
Reading options from the CDFT block
Calling plugin cdft.so.

  ==> Orthogonality Constrained DFT <==
    There are an even number of electrons - assuming singlet.
    Specify the multiplicity with the MULTP option in the
    input if this is incorrect


         ---------------------------------------------------------
                                   SCF
            by Justin Turney, Rob Parrish, and Andy Simmonett
                              UKS Reference
                        1 Threads,    256 MiB Core
         ---------------------------------------------------------

  ==> Geometry <==

    Molecular point group: c1
    Full point group: C_inf_v

    Geometry (in Angstrom), charge = 0, multiplicity = 1:

       Center              X                  Y                   Z       
    ------------   -----------------  -----------------  -----------------
           C          0.000000000000     0.000000000000    -0.644597882116
           O          0.000000000000     0.000000000000     0.483602117884

  Running in c1 symmetry.

  Rotational constants: A = ************  B =      1.93170  C =      1.93170 [cm^-1]
  Rotational constants: A = ************  B =  57910.98880  C =  57910.98880 [MHz]
  Nuclear repulsion =   22.514187211770960

  Charge       = 0
  Multiplicity = 1
  Electrons    = 14
  Nalpha       = 7
  Nbeta        = 7

  ==> Algorithm <==

  SCF Algorithm Type is PK.
  DIIS enabled.
  MOM disabled.
  Fractional occupation disabled.
  Guess Type is CORE.
  Energy threshold   = 1.00e-06
  Density threshold  = 1.00e-01
  Integral threshold = 1.00e-12

  ==> Primary Basis <==

  Basis Set: CC-PVDZ
    Number of shells: 12
    Number of basis function: 28
    Number of Cartesian functions: 30
    Spherical Harmonics?: true
    Max angular momentum: 2

  ==> DFT Potential <==

   => HFexch Composite Functional <= 

 DFT with 100% non-local exchange  

   Hartee-Fock paper I do not know yet

    Points   =           5000
    Deriv    =              1
    GGA      =          FALSE
    Meta     =          FALSE

    X_LRC        =          FALSE
    X_Hybrid     =           TRUE
    X_Alpha      =   1.000000E+00
    X_Omega      =   0.000000E+00
    C_LRC        =          FALSE
    C_Hybrid     =          FALSE
    C_Alpha      =   0.000000E+00
    C_Omega      =   0.000000E+00

   => Exchange Functionals <=

    0.0000        
    1.0000      HF 

   => Correlation Functionals <=


   => Molecular Quadrature <=

    Radial Scheme    =       TREUTLER
    Pruning Scheme   =           FLAT
    Nuclear Scheme   =       TREUTLER

    BS radius alpha  =              1
    Pruning alpha    =              1
    Radial Points    =             75
    Spherical Points =            302
    Total Points     =          42745
    Total Blocks     =             44
    Max Points       =           2734
    Max Functions    =             28


  ==> Unrestricted Orthogonality Constrained DFT (OCDFT) <==

  ==> Pre-Iterations <==

   -------------------------------------------------------
    Irrep   Nso     Nmo     Nalpha   Nbeta   Ndocc  Nsocc
   -------------------------------------------------------
     A         28      28       0       0       0       0
   -------------------------------------------------------
    Total      28      28       7       7       7       0
   -------------------------------------------------------

 OEINTS: Overlap, kinetic, potential, dipole, and quadrupole integrals
         stored in file 35.

  ==> Integral Setup <==

 MINTS: Wrapper to libmints.
   by Justin Turney

   Calculation information:
      Number of atoms:                   2
      Number of AO shells:              12
      Number of SO shells:              12
      Number of primitives:             44
      Number of atomic orbitals:        30
      Number of basis functions:        28

      Number of irreps:                  1
      Integral cutoff                 1.00e-12
      Number of functions per irrep: [  28 ]

 OEINTS: Overlap, kinetic, potential, dipole, and quadrupole integrals
         stored in file 35.

      Computing two-electron integrals...done
      Computed 19125 non-zero two-electron integrals.
        Stored in file 33.

	Batch   1 pq = [       0,     406] index = [             0,82621]
  ==> DiskJK: Disk-Based J/K Matrices <==

    J tasked:                  Yes
    K tasked:                  Yes
    wK tasked:                  No
    Memory (MB):               183
    Schwarz Cutoff:          1E-12

  Minimum eigenvalue in the overlap matrix is 2.1731739803E-02.
  Using Symmetric Orthogonalization.
  SCF Guess: Core (One-Electron) Hamiltonian.

  ==> Iterations <==

                        Total Energy        Delta E     RMS |[F,P]|

   @UKS iter   1:  -102.19478362873195   -1.02195e+02   2.37956e-01 
   @UKS iter   2:   -99.73610818747778    2.45868e+00   1.95311e-01 DIIS
   @UKS iter   3:  -112.38498857049281   -1.26489e+01   3.07927e-02 DIIS
   @UKS iter   4:  -112.73296331320974   -3.47975e-01   4.17790e-03 DIIS
   @UKS iter   5:  -112.74718030673067   -1.42170e-02   1.89058e-03 DIIS
   @UKS iter   6:  -112.74855153208524   -1.37123e-03   6.21624e-04 DIIS
   @UKS iter   7:  -112.74928490469151   -7.33373e-04   1.11902e-04 DIIS
   @UKS iter   8:  -112.74929238866137   -7.48397e-06   3.35916e-05 DIIS
   @UKS iter   9:  -112.74929280104956   -4.12388e-07   3.24546e-06 DIIS

  ==> Post-Iterations <==

   @Spin Contamination Metric:   3.463895837E-14
   @S^2 Expected:                0.000000000E+00
   @S^2 Observed:                3.463895837E-14
   @S   Expected:                0.000000000E+00
   @S   Observed:                0.000000000E+00

    Orbital Energies (a.u.)
    -----------------------

    Alpha Occupied:                                                       

       1A    -20.669339     2A    -11.366635     3A     -1.522945  
       4A     -0.802111     5A     -0.634421     6A     -0.634421  
       7A     -0.548819  

    Alpha Virtual:                                                        

       8A      0.154636     9A      0.154636    10A      0.382575  
      11A      0.672211    12A      0.672211    13A      0.726510  
      14A      1.018231    15A      1.061908    16A      1.224408  
      17A      1.224408    18A      1.344241    19A      1.344241  
      20A      1.558387    21A      1.558387    22A      1.938994  
      23A      2.343114    24A      2.937096    25A      2.937096  
      26A      3.426345    27A      3.426345    28A      3.871890  

    Beta Occupied:                                                        

       1A    -20.669339     2A    -11.366635     3A     -1.522945  
       4A     -0.802111     5A     -0.634421     6A     -0.634421  
       7A     -0.548819  

    Beta Virtual:                                                         

       8A      0.154636     9A      0.154636    10A      0.382575  
      11A      0.672211    12A      0.672211    13A      0.726510  
      14A      1.018231    15A      1.061908    16A      1.224408  
      17A      1.224408    18A      1.344241    19A      1.344241  
      20A      1.558387    21A      1.558387    22A      1.938994  
      23A      2.343114    24A      2.937096    25A      2.937096  
      26A      3.426345    27A      3.426345    28A      3.871890  

    Final Occupation by Irrep:
              A 
    DOCC [     7 ]
    SOCC [     0 ]

  Energy converged.

  @UKS Final Energy:  -112.74929280104956

   => Energetics <=

    Nuclear Repulsion Energy =              0.0000000000000000
    One-Electron Energy =                   0.0000000000000000
    Two-Electron Energy =                   0.0000000000000000
    DFT Exchange-Correlation Energy =       0.0000000000000000
    Empirical Dispersion Energy =           0.0000000000000000
    Total Energy =                          0.0000000000000000



Properties will be evaluated at   0.000000,   0.000000,   0.000000 Bohr
  ==> Properties <==


Properties computed using the SCF density matrix

  Nuclear Dipole Moment: (a.u.)
     X:     0.0000      Y:     0.0000      Z:     0.0023

  Electronic Dipole Moment: (a.u.)
     X:    -0.0000      Y:     0.0000      Z:    -0.0942

  Dipole Moment: (a.u.)
     X:    -0.0000      Y:     0.0000      Z:    -0.0919     Total:     0.0919

  Dipole Moment: (Debye)
     X:    -0.0000      Y:     0.0000      Z:    -0.2336     Total:     0.2336


  Saving occupied orbitals to File 180.
    There are an even number of electrons - assuming singlet.
    Specify the multiplicity with the MULTP option in the
    input if this is incorrect


         ---------------------------------------------------------
                                   SCF
            by Justin Turney, Rob Parrish, and Andy Simmonett
                              UKS Reference
                        1 Threads,    256 MiB Core
         ---------------------------------------------------------

  ==> Geometry <==

    Molecular point group: c1
    Full point group: C_inf_v

    Geometry (in Angstrom), charge = 0, multiplicity = 1:

       Center              X                  Y                   Z       
    ------------   -----------------  -----------------  -----------------
           C          0.000000000000     0.000000000000    -0.644597882116
           O          0.000000000000     0.000000000000     0.483602117884

  Running in c1 symmetry.

  Rotational constants: A = ************  B =      1.93170  C =      1.93170 [cm^-1]
  Rotational constants: A = ************  B =  57910.98880  C =  57910.98880 [MHz]
  Nuclear repulsion =   22.514187211770960

  Charge       = 0
  Multiplicity = 1
  Electrons    = 14
  Nalpha       = 7
  Nbeta        = 7

  ==> Algorithm <==

  SCF Algorithm Type is PK.
  DIIS enabled.
  MOM disabled.
  Fractional occupation disabled.
  Guess Type is CORE.
  Energy threshold   = 1.00e-06
  Density threshold  = 1.00e-01
  Integral threshold = 1.00e-12

  ==> Primary Basis <==

  Basis Set: CC-PVDZ
    Number of shells: 12
    Number of basis function: 28
    Number of Cartesian functions: 30
    Spherical Harmonics?: true
    Max angular momentum: 2

  ==> DFT Potential <==

   => HFexch Composite Functional <= 

 DFT with 100% non-local exchange  

   Hartee-Fock paper I do not know yet

    Points   =           5000
    Deriv    =              1
    GGA      =          FALSE
    Meta     =          FALSE

    X_LRC        =          FALSE
    X_Hybrid     =           TRUE
    X_Alpha      =   1.000000E+00
    X_Omega      =   0.000000E+00
    C_LRC        =          FALSE
    C_Hybrid     =          FALSE
    C_Alpha      =   0.000000E+00
    C_Omega      =   0.000000E+00

   => Exchange Functionals <=

    0.0000        
    1.0000      HF 

   => Correlation Functionals <=


   => Molecular Quadrature <=

    Radial Scheme    =       TREUTLER
    Pruning Scheme   =           FLAT
    Nuclear Scheme   =       TREUTLER

    BS radius alpha  =              1
    Pruning alpha    =              1
    Radial Points    =             75
    Spherical Points =            302
    Total Points     =          42745
    Total Blocks     =             44
    Max Points       =           2734
    Max Functions    =             28


  ==> Unrestricted Orthogonality Constrained DFT (OCDFT) <==

  Saving the reference orbitals for an excited state computation

  Projecting out holes and particles.

  STATE = 1
  Save the first hole in the series.  Compute a new particle and save it.
  Saved holes 0
    Saved number of holes per irrep (n = 1): 0  

    Saved number of particles per irrep (n = 1): 0  

    project_naholepi_ (n = 1): 0  
  ==> Pre-Iterations <==

   -------------------------------------------------------
    Irrep   Nso     Nmo     Nalpha   Nbeta   Ndocc  Nsocc
   -------------------------------------------------------
     A         28      28       0       0       0       0
   -------------------------------------------------------
    Total      28      28       7       7       7       0
   -------------------------------------------------------

 OEINTS: Overlap, kinetic, potential, dipole, and quadrupole integrals
         stored in file 35.

  ==> Integral Setup <==

 MINTS: Wrapper to libmints.
   by Justin Turney

   Calculation information:
      Number of atoms:                   2
      Number of AO shells:              12
      Number of SO shells:              12
      Number of primitives:             44
      Number of atomic orbitals:        30
      Number of basis functions:        28

      Number of irreps:                  1
      Integral cutoff                 1.00e-12
      Number of functions per irrep: [  28 ]

 OEINTS: Overlap, kinetic, potential, dipole, and quadrupole integrals
         stored in file 35.

      Computing two-electron integrals...done
      Computed 19125 non-zero two-electron integrals.
        Stored in file 33.

	Batch   1 pq = [       0,     406] index = [             0,82621]
  ==> DiskJK: Disk-Based J/K Matrices <==

    J tasked:                  Yes
    K tasked:                  Yes
    wK tasked:                  No
    Memory (MB):               183
    Schwarz Cutoff:          1E-12

  Minimum eigenvalue in the overlap matrix is 2.1731739803E-02.
  Using Symmetric Orthogonalization.
  Projecting out 0 previous holes
  Projecting out 0 previous particles

  Ground state symmetry: A
  Excited state symmetry: A

  Lowest energy excitations:
  --------------------------------------
    N   Occupied     Virtual     E(eV)  
  --------------------------------------
    1      1A    ->    8A       566.648
    2      1A    ->    9A       566.648
    3      1A    ->   10A       572.851
    4      1A    ->   11A       580.732
    5      1A    ->   12A       580.732
    6      1A    ->   13A       582.210
    7      1A    ->   14A       590.148
    8      1A    ->   15A       591.337
    9      1A    ->   16A       595.759
   10      1A    ->   17A       595.759
  --------------------------------------

  HOLES:        1A   (-20.669316)
  PARTICLES:    8A   (+0.154636)


  Projecting out particles:  ==> Iterations <==

                        Total Energy        Delta E     RMS |[F,P]|

  Projecting out 0 previous holes
  Projecting out 0 previous particles

  HOLES:        1A   (-20.157145)
  PARTICLES:    8A   (-0.436529)


  Projecting out particles:   @UKS iter   1:   -92.43751775307574   -3.01255e+01   2.94310e-02 
  Projecting out 0 previous holes
  Projecting out 0 previous particles

  HOLES:        1A   (-19.241976)
  PARTICLES:    8A   (-0.363762)


  Projecting out particles:   @UKS iter   2:   -92.87886666155086   -4.41349e-01   8.59496e-03 DIIS
  Projecting out 0 previous holes
  Projecting out 0 previous particles

  HOLES:        1A   (-18.981895)
  PARTICLES:    8A   (-0.345869)


  Projecting out particles:   @UKS iter   3:   -93.03843614590272   -1.59569e-01   2.69493e-03 DIIS
  Projecting out 0 previous holes
  Projecting out 0 previous particles

  HOLES:        1A   (-18.903657)
  PARTICLES:    8A   (-0.345526)


  Projecting out particles:   @UKS iter   4:   -93.05453458495298   -1.60984e-02   1.17286e-03 DIIS
  Projecting out 0 previous holes
  Projecting out 0 previous particles

  HOLES:        1A   (-18.890546)
  PARTICLES:    8A   (-0.347933)


  Projecting out particles:   @UKS iter   5:   -93.05681405813904   -2.27947e-03   5.22170e-04 DIIS
  Projecting out 0 previous holes
  Projecting out 0 previous particles

  HOLES:        1A   (-18.888925)
  PARTICLES:    8A   (-0.348959)


  Projecting out particles:   @UKS iter   6:   -93.05721124750275   -3.97189e-04   2.44959e-04 DIIS
  Projecting out 0 previous holes
  Projecting out 0 previous particles

  HOLES:        1A   (-18.888968)
  PARTICLES:    8A   (-0.348746)


  Projecting out particles:   @UKS iter   7:   -93.05727811874243   -6.68712e-05   1.98442e-05 DIIS
  Projecting out 0 previous holes
  Projecting out 0 previous particles

  HOLES:        1A   (-18.889181)
  PARTICLES:    8A   (-0.348593)


  Projecting out particles:   @UKS iter   8:   -93.05728015303190   -2.03429e-06   1.87810e-05 DIIS
  Projecting out 0 previous holes
  Projecting out 0 previous particles

  HOLES:        1A   (-18.889217)
  PARTICLES:    8A   (-0.348585)


  Projecting out particles:   @UKS iter   9:   -93.05728112308995   -9.70058e-07   4.50605e-06 DIIS

  ==> Post-Iterations <==

   @Spin Contamination Metric:   1.018019422E+00
   @S^2 Expected:                0.000000000E+00
   @S^2 Observed:                1.018019422E+00
   @S   Expected:                0.000000000E+00
   @S   Observed:                0.000000000E+00

    Orbital Energies (a.u.)
    -----------------------

    Alpha Occupied:                                                       

       1A   -100.000000     2A    -11.359509     3A     -1.660646  
       4A     -0.955502     5A     -0.851407     6A     -0.794515  
       7A     -0.583485  

    Alpha Virtual:                                                        

       8A      0.119336     9A      0.364949    10A      0.609478  
      11A      0.678552    12A      0.735425    13A      0.942285  
      14A      0.988375    15A      1.057959    16A      1.072793  
      17A      1.322056    18A      1.323784    19A      1.520959  
      20A      1.547343    21A      1.870978    22A      2.236743  
      23A      2.895720    24A      2.895854    25A      3.377667  
      26A      3.383231    27A      3.813955    28A    100.000000  

    Beta Occupied:                                                        

       1A    -23.660363     2A    -11.332528     3A     -1.730346  
       4A     -0.994679     5A     -0.867405     6A     -0.845443  
       7A     -0.503100  

    Beta Virtual:                                                         

       8A      0.134350     9A      0.185046    10A      0.368844  
      11A      0.703265    12A      0.748726    13A      0.764046  
      14A      0.926564    15A      1.008384    16A      1.026224  
      17A      1.040447    18A      1.403208    19A      1.404345  
      20A      1.554828    21A      1.595648    22A      1.844754  
      23A      2.214854    24A      2.899686    25A      2.899765  
      26A      3.373010    27A      3.395242    28A      3.810679  

    Final Occupation by Irrep:
              A 
    DOCC [     7 ]
    SOCC [     0 ]

  Energy converged.

  @UKS Final Energy:   -93.05728112308995

   => Energetics <=

    Nuclear Repulsion Energy =              0.0000000000000000
    One-Electron Energy =                   0.0000000000000000
    Two-Electron Energy =                   0.0000000000000000
    DFT Exchange-Correlation Energy =       0.0000000000000000
    Empirical Dispersion Energy =           0.0000000000000000
    Total Energy =                          0.0000000000000000



Properties will be evaluated at   0.000000,   0.000000,   0.000000 Bohr
  ==> Properties <==


Properties computed using the SCF density matrix

  Nuclear Dipole Moment: (a.u.)
     X:     0.0000      Y:     0.0000      Z:     0.0023

  Electronic Dipole Moment: (a.u.)
     X:    -0.0000      Y:     0.0000      Z:     0.4790

  Dipole Moment: (a.u.)
     X:    -0.0000      Y:     0.0000      Z:     0.4813     Total:     0.4813

  Dipole Moment: (Debye)
     X:    -0.0000      Y:     0.0000      Z:     1.2235     Total:     1.2235



  Analysis of the hole/particle MOs in terms of the ground state DFT MOs
  Hole:          0A =  100.0% 1A
  Particle:      0A =  89.1% 8A +  6.0% 9A +  3.1% 11A +  1.5% 16A


  Computing transition dipole moments
  2 determinants stored
 det U = -1.000000, det V = 1.000000
 det U = -1.000000, det V = -1.000000
  Corresponding orbitals:
  A(alpha):  (0, 6)
  B(alpha):  (0, 6)
  s(alpha):  2.100943e-16
  A(beta):  
  B(beta):  
  s(beta):  
  Stilde = -0.872839


Properties will be evaluated at   0.000000,   0.000000,   0.000000 Bohr
  ==> Transition dipole moment computed with OCDFT <==


Properties computed using the OCDFT TRANSITION density matrix

  Transition Dipole Moment: (a.u.)
     X:    -0.0338      Y:     0.0072      Z:    -0.0000     Total:     0.0346

  Transition Dipole Moment: (Debye)
     X:    -0.0860      Y:     0.0183      Z:    -0.0000     Total:     0.0880


  Dipole moments from AO integrals: -0.0338 0.0072 -0.0000
  Mulliken Population Analysis of the Transition Dipole Moment:

  ===============================================================
   Initial     Final     mu(x)      mu(y)      mu(z)       |mu|
  ---------------------------------------------------------------
    2  O s    2  O p  -0.036760   0.007828  -0.000000   0.037585
    2  O s    1  C p   0.002728  -0.000581  -0.000000   0.002789
    1  C s    1  C p   0.001553  -0.000331  -0.000000   0.001587
    2  O p    1  C p  -0.000608   0.000130  -0.000000   0.000622
    1  C p    2  O p  -0.000525   0.000112  -0.000000   0.000536
    1  C s    2  O p  -0.000477   0.000102  -0.000000   0.000488
    1  C d    1  C p   0.000144  -0.000031   0.000000   0.000148
    2  O d    2  O p   0.000070  -0.000015   0.000000   0.000072
    1  C d    2  O p   0.000033  -0.000007  -0.000000   0.000034
    2  O s    1  C d  -0.000003   0.000001  -0.000000   0.000003
    2  O d    1  C p  -0.000003   0.000001  -0.000000   0.000003
    1  C s    2  O d   0.000001  -0.000000  -0.000000   0.000001
  ===============================================================


  ===============================================================

  Excited mixed state   : excitation energy = 19.692012 Eh = 535.8468 eV = 4321896.4 cm**-1 

  ==> Spin-adaptation correction using S+ <==
  Most important corresponding occupied/virtual orbitals:

  Pair  Irrep  MO  <phi_b|phi_a>
     0       A    0    1.000000
     1       A    1    0.086670
     2       A    2    0.078862
     3       A    3    0.044759
     4       A    4    0.036721
     5       A    5    0.030595
     6       A    6    0.000799

  Original occupation numbers:
	NA   [     7 ]
	NB   [     7 ]

  Final occupation numbers:
	NA   [     8 ]
	NB   [     6 ]

  Triplet state energy (S+) 2-A        -93.046331447 Eh 

  Singlet state energy (S+) 2-A        -93.068230799 Eh 

  Excited triplet state 2-A : excitation energy (S+) = 19.702961 Eh = 536.1448 eV = 4324299.6 cm**-1 
  Excited singlet state 2-A : excitation energy (S+) = 19.681062 Eh = 535.5489 eV = 4319493.2 cm**-1 

  Transition Dipole Moment = (-0.033846,0.007208,-0.000000)

   @Spin Contamination Metric:   2.018019422E+00
   @S^2 Expected:                0.000000000E+00
   @S^2 Observed:                2.018019422E+00
   @S   Expected:                0.000000000E+00
   @S   Observed:                0.000000000E+00


  Saved number of holes per irrep (n = 1): 0  
  Saved number of particles per irrep (n = 1): 0  

  Saving occupied orbitals to File 180.
    There are an even number of electrons - assuming singlet.
    Specify the multiplicity with the MULTP option in the
    input if this is incorrect


         ---------------------------------------------------------
                                   SCF
            by Justin Turney, Rob Parrish, and Andy Simmonett
                              UKS Reference
                        1 Threads,    256 MiB Core
         ---------------------------------------------------------

  ==> Geometry <==

    Molecular point group: c1
    Full point group: C_inf_v

    Geometry (in Angstrom), charge = 0, multiplicity = 1:

       Center              X                  Y                   Z       
    ------------   -----------------  -----------------  -----------------
           C          0.000000000000     0.000000000000    -0.644597882116
           O          0.000000000000     0.000000000000     0.483602117884

  Running in c1 symmetry.

  Rotational constants: A = ************  B =      1.93170  C =      1.93170 [cm^-1]
  Rotational constants: A = ************  B =  57910.98880  C =  57910.98880 [MHz]
  Nuclear repulsion =   22.514187211770960

  Charge       = 0
  Multiplicity = 1
  Electrons    = 14
  Nalpha       = 7
  Nbeta        = 7

  ==> Algorithm <==

  SCF Algorithm Type is PK.
  DIIS enabled.
  MOM disabled.
  Fractional occupation disabled.
  Guess Type is CORE.
  Energy threshold   = 1.00e-06
  Density threshold  = 1.00e-01
  Integral threshold = 1.00e-12

  ==> Primary Basis <==

  Basis Set: CC-PVDZ
    Number of shells: 12
    Number of basis function: 28
    Number of Cartesian functions: 30
    Spherical Harmonics?: true
    Max angular momentum: 2

  ==> DFT Potential <==

   => HFexch Composite Functional <= 

 DFT with 100% non-local exchange  

   Hartee-Fock paper I do not know yet

    Points   =           5000
    Deriv    =              1
    GGA      =          FALSE
    Meta     =          FALSE

    X_LRC        =          FALSE
    X_Hybrid     =           TRUE
    X_Alpha      =   1.000000E+00
    X_Omega      =   0.000000E+00
    C_LRC        =          FALSE
    C_Hybrid     =          FALSE
    C_Alpha      =   0.000000E+00
    C_Omega      =   0.000000E+00

   => Exchange Functionals <=

    0.0000        
    1.0000      HF 

   => Correlation Functionals <=


   => Molecular Quadrature <=

    Radial Scheme    =       TREUTLER
    Pruning Scheme   =           FLAT
    Nuclear Scheme   =       TREUTLER

    BS radius alpha  =              1
    Pruning alpha    =              1
    Radial Points    =             75
    Spherical Points =            302
    Total Points     =          42745
    Total Blocks     =             44
    Max Points       =           2734
    Max Functions    =             28


  ==> Unrestricted Orthogonality Constrained DFT (OCDFT) <==

  Saving the reference orbitals for an excited state computation

  Projecting out holes and particles.

  STATE = 2
  Compute a new particle and save it, project out the holes but don't save it.  Saved holes 1
    Saved number of holes per irrep (n = 1): 1  

    Number of particles per irrep (n = 1): 1  

    project_naholepi_ (n = 1): 0  
  ==> Pre-Iterations <==

   -------------------------------------------------------
    Irrep   Nso     Nmo     Nalpha   Nbeta   Ndocc  Nsocc
   -------------------------------------------------------
     A         28      28       0       0       0       0
   -------------------------------------------------------
    Total      28      28       7       7       7       0
   -------------------------------------------------------

 OEINTS: Overlap, kinetic, potential, dipole, and quadrupole integrals
         stored in file 35.

  ==> Integral Setup <==

 MINTS: Wrapper to libmints.
   by Justin Turney

   Calculation information:
      Number of atoms:                   2
      Number of AO shells:              12
      Number of SO shells:              12
      Number of primitives:             44
      Number of atomic orbitals:        30
      Number of basis functions:        28

      Number of irreps:                  1
      Integral cutoff                 1.00e-12
      Number of functions per irrep: [  28 ]

 OEINTS: Overlap, kinetic, potential, dipole, and quadrupole integrals
         stored in file 35.

      Computing two-electron integrals...done
      Computed 19125 non-zero two-electron integrals.
        Stored in file 33.

	Batch   1 pq = [       0,     406] index = [             0,82621]
  ==> DiskJK: Disk-Based J/K Matrices <==

    J tasked:                  Yes
    K tasked:                  Yes
    wK tasked:                  No
    Memory (MB):               183
    Schwarz Cutoff:          1E-12

  Minimum eigenvalue in the overlap matrix is 2.1731739803E-02.
  Using Symmetric Orthogonalization.
  Projecting out 0 previous holes
  Projecting out 1 previous particles

  Ground state symmetry: A
  Excited state symmetry: A

  Lowest energy excitations:
  --------------------------------------
    N   Occupied     Virtual     E(eV)  
  --------------------------------------
    1      1A    ->    9A       566.648
    2      1A    ->   10A       572.851
    3      1A    ->   11A       580.272
    4      1A    ->   12A       580.732
    5      1A    ->   13A       582.210
    6      1A    ->   14A       590.148
    7      1A    ->   15A       591.337
    8      1A    ->   16A       595.306
    9      1A    ->   17A       595.759
   10      1A    ->   18A       599.019
  --------------------------------------

  HOLES:        1A   (-20.669316)
  PARTICLES:    9A   (+0.154636)


  Projecting out particles:  ==> Iterations <==

                        Total Energy        Delta E     RMS |[F,P]|

  Projecting out 0 previous holes
  Projecting out 1 previous particles

  HOLES:        1A   (-20.157140)
  PARTICLES:    8A   (-0.436529)


  Projecting out particles:   @UKS iter   1:   -92.43752230301305   -3.01255e+01   2.81205e-02 
  Projecting out 0 previous holes
  Projecting out 1 previous particles

  HOLES:        1A   (-19.272584)
  PARTICLES:    8A   (-0.364501)


  Projecting out particles:   @UKS iter   2:   -92.92163678612850   -4.84114e-01   7.50942e-03 DIIS
  Projecting out 0 previous holes
  Projecting out 1 previous particles

  HOLES:        1A   (-19.014272)
  PARTICLES:    8A   (-0.347293)


  Projecting out particles:   @UKS iter   3:   -93.02932098650267   -1.07684e-01   2.52364e-03 DIIS
  Projecting out 0 previous holes
  Projecting out 1 previous particles

  HOLES:        1A   (-18.943017)
  PARTICLES:    8A   (-0.347234)


  Projecting out particles:   @UKS iter   4:   -93.04188938741908   -1.25684e-02   1.13783e-03 DIIS
  Projecting out 0 previous holes
  Projecting out 1 previous particles

  HOLES:        1A   (-18.929643)
  PARTICLES:    8A   (-0.348945)


  Projecting out particles:   @UKS iter   5:   -93.04412561106520   -2.23622e-03   5.15046e-04 DIIS
  Projecting out 0 previous holes
  Projecting out 1 previous particles

  HOLES:        1A   (-18.926321)
  PARTICLES:    8A   (-0.349345)


  Projecting out particles:   @UKS iter   6:   -93.04451188486159   -3.86274e-04   1.71245e-04 DIIS
  Projecting out 0 previous holes
  Projecting out 1 previous particles

  HOLES:        1A   (-18.928423)
  PARTICLES:    8A   (-0.348361)


  Projecting out particles:   @UKS iter   7:   -93.04455080740421   -3.89225e-05   9.19955e-05 DIIS
  Projecting out 0 previous holes
  Projecting out 1 previous particles

  HOLES:        1A   (-18.928586)
  PARTICLES:    8A   (-0.348409)


  Projecting out particles:   @UKS iter   8:   -93.04453875598053    1.20514e-05   2.11329e-05 DIIS
  Projecting out 0 previous holes
  Projecting out 1 previous particles

  HOLES:        1A   (-18.927739)
  PARTICLES:    8A   (-0.349038)


  Projecting out particles:   @UKS iter   9:   -93.04453176955757    6.98642e-06   7.23544e-05 DIIS
  Projecting out 0 previous holes
  Projecting out 1 previous particles

  HOLES:        1A   (-18.925995)
  PARTICLES:    8A   (-0.349547)


  Projecting out particles:   @UKS iter  10:   -93.04452323847858    8.53108e-06   7.91213e-05 DIIS
  Projecting out 0 previous holes
  Projecting out 1 previous particles

  HOLES:        1A   (-18.925851)
  PARTICLES:    8A   (-0.349573)


  Projecting out particles:   @UKS iter  11:   -93.04453347319804   -1.02347e-05   1.34400e-05 DIIS
  Projecting out 0 previous holes
  Projecting out 1 previous particles

  HOLES:        1A   (-18.925375)
  PARTICLES:    8A   (-0.350089)


  Projecting out particles:   @UKS iter  12:   -93.04453300893485    4.64263e-07   8.84172e-05 DIIS

  ==> Post-Iterations <==

   @Spin Contamination Metric:   1.093995278E+00
   @S^2 Expected:                0.000000000E+00
   @S^2 Observed:                1.093995278E+00
   @S   Expected:                0.000000000E+00
   @S   Observed:                0.000000000E+00

    Orbital Energies (a.u.)
    -----------------------

    Alpha Occupied:                                                       

       1A   -100.000000     2A    -11.347008     3A     -1.670724  
       4A     -0.974982     5A     -0.866505     6A     -0.755384  
       7A     -0.582069  

    Alpha Virtual:                                                        

       8A      0.362587     9A      0.615513    10A      0.654524  
      11A      0.740393    12A      0.933157    13A      0.981847  
      14A      1.041722    15A      1.069718    16A      1.321667  
      17A      1.322746    18A      1.522246    19A      1.548611  
      20A      1.858887    21A      2.234424    22A      2.882265  
      23A      2.882523    24A      3.359716    25A      3.371229  
      26A      3.797669    27A    100.000000    28A    200.000000  

    Beta Occupied:                                                        

       1A    -23.708164     2A    -11.316252     3A     -1.760053  
       4A     -1.029008     5A     -0.916841     6A     -0.880144  
       7A     -0.487822  

    Beta Virtual:                                                         

       8A      0.144466     9A      0.189716    10A      0.368216  
      11A      0.719030    12A      0.757845    13A      0.773338  
      14A      0.917166    15A      1.001962    16A      1.005064  
      17A      1.021846    18A      1.417096    19A      1.417801  
      20A      1.561744    21A      1.598681    22A      1.829806  
      23A      2.213223    24A      2.865473    25A      2.865539  
      26A      3.345209    27A      3.374096    28A      3.786852  

    Final Occupation by Irrep:
              A 
    DOCC [     7 ]
    SOCC [     0 ]

  Energy converged.

  @UKS Final Energy:   -93.04453300893485

   => Energetics <=

    Nuclear Repulsion Energy =              0.0000000000000000
    One-Electron Energy =                   0.0000000000000000
    Two-Electron Energy =                   0.0000000000000000
    DFT Exchange-Correlation Energy =       0.0000000000000000
    Empirical Dispersion Energy =           0.0000000000000000
    Total Energy =                          0.0000000000000000



Properties will be evaluated at   0.000000,   0.000000,   0.000000 Bohr
  ==> Properties <==


Properties computed using the SCF density matrix

  Nuclear Dipole Moment: (a.u.)
     X:     0.0000      Y:     0.0000      Z:     0.0023

  Electronic Dipole Moment: (a.u.)
     X:     0.0000      Y:    -0.0000      Z:     0.6552

  Dipole Moment: (a.u.)
     X:     0.0000      Y:    -0.0000      Z:     0.6575     Total:     0.6575

  Dipole Moment: (Debye)
     X:     0.0000      Y:    -0.0000      Z:     1.6713     Total:     1.6713



  Analysis of the hole/particle MOs in terms of the ground state DFT MOs
  Hole:          0A =  100.0% 1A
  Particle:      0A =  89.1% 9A +  6.0% 8A +  2.9% 12A +  1.6% 17A


  Computing transition dipole moments
  3 determinants stored
 det U = -1.000000, det V = -1.000000
 det U = 1.000000, det V = 1.000000
  Corresponding orbitals:
  A(alpha):  (0, 6)
  B(alpha):  (0, 6)
  s(alpha):  3.086102e-17
  A(beta):  
  B(beta):  
  s(beta):  
  Stilde = 0.867024


Properties will be evaluated at   0.000000,   0.000000,   0.000000 Bohr
  ==> Transition dipole moment computed with OCDFT <==


Properties computed using the OCDFT TRANSITION density matrix

  Transition Dipole Moment: (a.u.)
     X:     0.0072      Y:     0.0339      Z:     0.0000     Total:     0.0346

  Transition Dipole Moment: (Debye)
     X:     0.0183      Y:     0.0861      Z:     0.0000     Total:     0.0880


  Dipole moments from AO integrals: 0.0072 0.0339 0.0000
  Mulliken Population Analysis of the Transition Dipole Moment:

  ===============================================================
   Initial     Final     mu(x)      mu(y)      mu(z)       |mu|
  ---------------------------------------------------------------
    2  O s    2  O p   0.007828   0.036760   0.000000   0.037585
    2  O s    1  C p  -0.000561  -0.002633  -0.000000   0.002692
    1  C s    1  C p  -0.000329  -0.001544  -0.000000   0.001579
    2  O p    1  C p   0.000126   0.000593   0.000000   0.000606
    1  C p    2  O p   0.000108   0.000506  -0.000000   0.000517
    1  C s    2  O p   0.000100   0.000471  -0.000000   0.000482
    1  C d    1  C p  -0.000031  -0.000148  -0.000000   0.000151
    2  O d    2  O p  -0.000015  -0.000069   0.000000   0.000071
    1  C d    2  O p  -0.000007  -0.000035   0.000000   0.000035
    2  O s    1  C d  -0.000005  -0.000023  -0.000000   0.000023
    2  O d    1  C p   0.000001   0.000003  -0.000000   0.000003
    1  C p    1  C d  -0.000001  -0.000003  -0.000000   0.000003
    1  C s    2  O d  -0.000000  -0.000002   0.000000   0.000002
  ===============================================================


  ===============================================================

  Excited mixed state   : excitation energy = 19.704760 Eh = 536.1937 eV = 4324694.3 cm**-1 

  ==> Spin-adaptation correction using S+ <==
  Most important corresponding occupied/virtual orbitals:

  Pair  Irrep  MO  <phi_b|phi_a>
     0       A    0    1.000000
     1       A    1    0.285296
     2       A    2    0.083653
     3       A    3    0.050480
     4       A    4    0.044376
     5       A    5    0.032944
     6       A    6    0.000909

  Original occupation numbers:
	NA   [     7 ]
	NB   [     7 ]

  Final occupation numbers:
	NA   [     8 ]
	NB   [     6 ]

  Triplet state energy (S+) 3-A        -93.021863674 Eh 

  Singlet state energy (S+) 3-A        -93.067202344 Eh 

  Excited triplet state 3-A : excitation energy (S+) = 19.727429 Eh = 536.8106 eV = 4329669.6 cm**-1 
  Excited singlet state 3-A : excitation energy (S+) = 19.682090 Eh = 535.5768 eV = 4319718.9 cm**-1 

  Transition Dipole Moment = (0.007214,0.033877,0.000000)

   @Spin Contamination Metric:   2.093995278E+00
   @S^2 Expected:                0.000000000E+00
   @S^2 Observed:                2.093995278E+00
   @S   Expected:                0.000000000E+00
   @S   Observed:                0.000000000E+00


  Number of particles per irrep (n = 1): 1  

  Saving occupied orbitals to File 180.

       ==> OCDFT Excited State Information <==

    ----------------------------------------------------
      State       Energy (Eh)    Omega (eV)   Osc. Str.
    ----------------------------------------------------
     @OCDFT-0    -112.7492928      0.0000      0.0000
     @OCDFT-1     -93.0572811    535.5489      0.0157
     @OCDFT-2     -93.0445330    535.5768      0.0157
    ----------------------------------------------------
 MINTS: Wrapper to libmints.
   by Justin Turney

   Calculation information:
      Number of atoms:                   2
      Number of AO shells:              12
      Number of SO shells:              12
      Number of primitives:             44
      Number of atomic orbitals:        30
      Number of basis functions:        28

      Number of irreps:                  1
      Integral cutoff                 1.00e-12
      Number of functions per irrep: [  28 ]

 OEINTS: Overlap, kinetic, potential, dipole, and quadrupole integrals
         stored in file 35.

      Computing two-electron integrals...done
      Computed 19125 non-zero two-electron integrals.
        Stored in file 33.

	Batch   1 pq = [       0,     406] index = [             0,82621]

  ==> Reading the two-electron integrals (C1 symmetry) <==
  ==> Computing the NOCI energy <==
  Element (0,0)
 det U = -1.000000, det V = -1.000000
 det U = -1.000000, det V = -1.000000
  Corresponding orbitals:

  Alpha: 
  Beta: 
  Stilde = 1.000000

  Noncoincidences: 0a + 0b 

  Element (0,1)
 det U = -1.000000, det V = 1.000000
 det U = -1.000000, det V = -1.000000
  Corresponding orbitals:

  Alpha:  MO = 6, s = 2.100943e-16
  Beta: 
  Stilde = -0.872839

  Noncoincidences: 1a + 0b 
  ## D_BA (Symmetry 0) ##
  Irrep: 1 Size: 28 x 28

                 1                   2                   3                   4                   5

    1    -0.00000000000000    -0.00000000000000    -0.00000000000000    -0.00000000000000    -0.00000000000000
    2     0.00000000000000     0.00000000000000     0.00000000000000     0.00000000000000     0.00000000000000
    3    -0.00000000000000    -0.00000000000000    -0.00000000000000    -0.00000000000000    -0.00000000000000
    4    -0.00000000000000    -0.00000000000000    -0.00000000000000    -0.00000000000000    -0.00000000000000
    5     0.00001740537840     0.00005973633358     0.00100388561003     0.00029064678424     0.00000000000000
    6    -0.00000370661665    -0.00001272133724    -0.00021378559123    -0.00006189559247    -0.00000000000000
    7    -0.00000000000000    -0.00000000000000    -0.00000000000000    -0.00000000000000    -0.00000000000000
    8     0.00001418174096     0.00004867261081     0.00081795668842     0.00023681630532     0.00000000000000
    9    -0.00000302011688    -0.00001036522765    -0.00017419051781    -0.00005043195494    -0.00000000000000
   10    -0.00000000000000    -0.00000000000000    -0.00000000000000    -0.00000000000000    -0.00000000000000
   11    -0.00000001145922    -0.00000003932875    -0.00000066093056    -0.00000019135382    -0.00000000000000
   12     0.00000000244033     0.00000000837538     0.00000014075053     0.00000004075035     0.00000000000000
   13     0.00000000000000     0.00000000000000     0.00000000000000     0.00000000000000     0.00000000000000
   14     0.00000000000000     0.00000000000000     0.00000000000000     0.00000000000000     0.00000000000000
   15    -0.00000000000000    -0.00000000000000    -0.00000000000000    -0.00000000000000    -0.00000000000000
   16    -0.00000000000000    -0.00000000000000    -0.00000000000000    -0.00000000000000    -0.00000000000000
   17     0.00000000000000     0.00000000000000     0.00000000000000     0.00000000000000     0.00000000000000
   18    -0.00000000000000    -0.00000000000000    -0.00000000000000    -0.00000000000000    -0.00000000000000
   19    -0.00001300862882    -0.00004464641750    -0.00075029539622    -0.00021722688518    -0.00000000000000
   20     0.00000277029313     0.00000950781709     0.00015978149630     0.00004626022887     0.00000000000000
   21    -0.00000000000000    -0.00000000000000    -0.00000000000000    -0.00000000000000    -0.00000000000000
   22    -0.00000905776525    -0.00003108680973    -0.00052242243670    -0.00015125269226    -0.00000000000000
   23     0.00000192892465     0.00000662018853     0.00011125409946     0.00003221048884     0.00000000000000
   24     0.00000000000000     0.00000000000000     0.00000000000000     0.00000000000000     0.00000000000000
   25    -0.00000021248097    -0.00000072924780    -0.00001225521098    -0.00000354815093    -0.00000000000000
   26     0.00000004524955     0.00000015529924     0.00000260984668     0.00000075560755     0.00000000000000
   27    -0.00000000000000    -0.00000000000000    -0.00000000000000    -0.00000000000000    -0.00000000000000
   28    -0.00000000000000    -0.00000000000000    -0.00000000000000    -0.00000000000000    -0.00000000000000

                 6                   7                   8                   9                  10

    1    -0.00000000000000    -0.00000000000000    -0.00000000000000    -0.00000000000000     0.00000000000000
    2     0.00000000000000     0.00000000000000     0.00000000000000     0.00000000000000    -0.00000000000000
    3    -0.00000000000000    -0.00000000000000    -0.00000000000000    -0.00000000000000     0.00000000000000
    4    -0.00000000000000    -0.00000000000000    -0.00000000000000    -0.00000000000000     0.00000000000000
    5     0.00000000000000     0.00083436138200     0.00000000000000     0.00000000000000    -0.00026044956964
    6    -0.00000000000000    -0.00017768403050    -0.00000000000000    -0.00000000000000     0.00005546485045
    7    -0.00000000000000    -0.00000000000000    -0.00000000000000    -0.00000000000000     0.00000000000000
    8     0.00000000000000     0.00067982991901     0.00000000000000     0.00000000000000    -0.00021221189481
    9    -0.00000000000000    -0.00014477530081    -0.00000000000000    -0.00000000000000     0.00004519224595
   10    -0.00000000000000    -0.00000000000000    -0.00000000000000    -0.00000000000000     0.00000000000000
   11    -0.00000000000000    -0.00000054932049    -0.00000000000000    -0.00000000000000     0.00000017147280
   12     0.00000000000000     0.00000011698226     0.00000000000000     0.00000000000000    -0.00000003651653
   13     0.00000000000000     0.00000000000000     0.00000000000000     0.00000000000000    -0.00000000000000
   14     0.00000000000000     0.00000000000000     0.00000000000000     0.00000000000000    -0.00000000000000
   15    -0.00000000000000    -0.00000000000000    -0.00000000000000    -0.00000000000000     0.00000000000000
   16    -0.00000000000000    -0.00000000000000    -0.00000000000000    -0.00000000000000     0.00000000000000
   17     0.00000000000000     0.00000000000000     0.00000000000000     0.00000000000000    -0.00000000000000
   18    -0.00000000000000    -0.00000000000000    -0.00000000000000    -0.00000000000000     0.00000000000000
   19    -0.00000000000000    -0.00062359445882    -0.00000000000000    -0.00000000000000     0.00019465774894
   20     0.00000000000000     0.00013279950299     0.00000000000000     0.00000000000000    -0.00004145394807
   21    -0.00000000000000    -0.00000000000000    -0.00000000000000    -0.00000000000000     0.00000000000000
   22    -0.00000000000000    -0.00043420196676    -0.00000000000000    -0.00000000000000     0.00013553805080
   23     0.00000000000000     0.00009246683412     0.00000000000000     0.00000000000000    -0.00002886392835
   24     0.00000000000000     0.00000000000000     0.00000000000000     0.00000000000000    -0.00000000000000
   25    -0.00000000000000    -0.00001018569712    -0.00000000000000    -0.00000000000000     0.00000317951009
   26     0.00000000000000     0.00000216912690     0.00000000000000     0.00000000000000    -0.00000067710249
   27    -0.00000000000000    -0.00000000000000    -0.00000000000000    -0.00000000000000     0.00000000000000
   28    -0.00000000000000    -0.00000000000000    -0.00000000000000    -0.00000000000000     0.00000000000000

                11                  12                  13                  14                  15

    1    -0.00000000000000    -0.00000000000000     0.00000000000000     0.00000000000000    -0.00000000000000
    2     0.00000000000000     0.00000000000000    -0.00000000000000    -0.00000000000000     0.00000000000000
    3    -0.00000000000000    -0.00000000000000     0.00000000000000     0.00000000000000    -0.00000000000000
    4    -0.00000000000000    -0.00000000000000     0.00000000000000     0.00000000000000    -0.00000000000000
    5     0.00000000000000     0.00000000000000    -0.00000000000000    -0.00000000000000     0.61211597455169
    6    -0.00000000000000    -0.00000000000000     0.00000000000000     0.00000000000000    -0.13035506656761
    7    -0.00000000000000    -0.00000000000000     0.00000000000000     0.00000000000000    -0.00000000000000
    8     0.00000000000000     0.00000000000000    -0.00000000000000    -0.00000000000000     0.49874642137838
    9    -0.00000000000000    -0.00000000000000     0.00000000000000     0.00000000000000    -0.10621209976876
   10    -0.00000000000000    -0.00000000000000     0.00000000000000     0.00000000000000    -0.00000000000000
   11    -0.00000000000000    -0.00000000000000     0.00000000000000     0.00000000000000    -0.00040300025269
   12     0.00000000000000     0.00000000000000    -0.00000000000000    -0.00000000000000     0.00008582217578
   13     0.00000000000000     0.00000000000000    -0.00000000000000    -0.00000000000000     0.00000000000000
   14     0.00000000000000     0.00000000000000    -0.00000000000000    -0.00000000000000     0.00000000000000
   15    -0.00000000000000    -0.00000000000000     0.00000000000000     0.00000000000000    -0.00000000000000
   16    -0.00000000000000    -0.00000000000000     0.00000000000000     0.00000000000000    -0.00000000000000
   17     0.00000000000000     0.00000000000000    -0.00000000000000    -0.00000000000000     0.00000000000000
   18    -0.00000000000000    -0.00000000000000     0.00000000000000     0.00000000000000    -0.00000000000000
   19    -0.00000000000000    -0.00000000000000     0.00000000000000     0.00000000000000    -0.45749016927204
   20     0.00000000000000     0.00000000000000    -0.00000000000000    -0.00000000000000     0.09742624592204
   21    -0.00000000000000    -0.00000000000000     0.00000000000000     0.00000000000000    -0.00000000000000
   22    -0.00000000000000    -0.00000000000000     0.00000000000000     0.00000000000000    -0.31854537586205
   23     0.00000000000000     0.00000000000000    -0.00000000000000    -0.00000000000000     0.06783682406870
   24     0.00000000000000     0.00000000000000    -0.00000000000000    -0.00000000000000     0.00000000000000
   25    -0.00000000000000    -0.00000000000000     0.00000000000000     0.00000000000000    -0.00747257489971
   26     0.00000000000000     0.00000000000000    -0.00000000000000    -0.00000000000000     0.00159134549494
   27    -0.00000000000000    -0.00000000000000     0.00000000000000     0.00000000000000    -0.00000000000000
   28    -0.00000000000000    -0.00000000000000     0.00000000000000     0.00000000000000    -0.00000000000000

                16                  17                  18                  19                  20

    1    -0.00000000000000     0.00000000000000     0.00000000000000     0.00000000000000     0.00000000000000
    2     0.00000000000000    -0.00000000000000    -0.00000000000000    -0.00000000000000    -0.00000000000000
    3    -0.00000000000000     0.00000000000000     0.00000000000000     0.00000000000000     0.00000000000000
    4    -0.00000000000000     0.00000000000000     0.00000000000000     0.00000000000000     0.00000000000000
    5     0.00226638134565    -0.00175104014935    -0.00094358933700    -0.00000000000000    -0.00000000000000
    6    -0.00048264430837     0.00037289821655     0.00020094501034     0.00000000000000     0.00000000000000
    7    -0.00000000000000     0.00000000000000     0.00000000000000     0.00000000000000     0.00000000000000
    8     0.00184662650970    -0.00142673128049    -0.00076882784415    -0.00000000000000    -0.00000000000000
    9    -0.00039325410805     0.00030383400985     0.00016372813155     0.00000000000000     0.00000000000000
   10    -0.00000000000000     0.00000000000000     0.00000000000000     0.00000000000000     0.00000000000000
   11    -0.00000149212289     0.00000115283648     0.00000062123316     0.00000000000000     0.00000000000000
   12     0.00000031775968    -0.00000024550589    -0.00000013229665    -0.00000000000000    -0.00000000000000
   13     0.00000000000000    -0.00000000000000    -0.00000000000000    -0.00000000000000    -0.00000000000000
   14     0.00000000000000    -0.00000000000000    -0.00000000000000    -0.00000000000000    -0.00000000000000
   15    -0.00000000000000     0.00000000000000     0.00000000000000     0.00000000000000     0.00000000000000
   16    -0.00000000000000     0.00000000000000     0.00000000000000     0.00000000000000     0.00000000000000
   17     0.00000000000000    -0.00000000000000    -0.00000000000000    -0.00000000000000    -0.00000000000000
   18    -0.00000000000000     0.00000000000000     0.00000000000000     0.00000000000000     0.00000000000000
   19    -0.00169387375687     0.00130871221735     0.00070523048484     0.00000000000000     0.00000000000000
   20     0.00036072416913    -0.00027870089216    -0.00015018455753    -0.00000000000000    -0.00000000000000
   21    -0.00000000000000     0.00000000000000     0.00000000000000     0.00000000000000     0.00000000000000
   22    -0.00117942567685     0.00091124193080     0.00049104423428     0.00000000000000     0.00000000000000
   23     0.00025116827368    -0.00019405636756    -0.00010457185649    -0.00000000000000    -0.00000000000000
   24     0.00000000000000    -0.00000000000000    -0.00000000000000    -0.00000000000000    -0.00000000000000
   25    -0.00002766747653     0.00002137630647     0.00001151912756     0.00000000000000     0.00000000000000
   26     0.00000589201376    -0.00000455225802    -0.00000245309174    -0.00000000000000    -0.00000000000000
   27    -0.00000000000000     0.00000000000000     0.00000000000000     0.00000000000000     0.00000000000000
   28    -0.00000000000000     0.00000000000000     0.00000000000000     0.00000000000000     0.00000000000000

                21                  22                  23                  24                  25

    1    -0.00000000000000     0.00000000000000     0.00000000000000    -0.00000000000000    -0.00000000000000
    2     0.00000000000000    -0.00000000000000    -0.00000000000000     0.00000000000000     0.00000000000000
    3    -0.00000000000000     0.00000000000000     0.00000000000000    -0.00000000000000    -0.00000000000000
    4    -0.00000000000000     0.00000000000000     0.00000000000000    -0.00000000000000    -0.00000000000000
    5     0.00097537630220    -0.00000000000000    -0.00000000000000     0.00026985377724     0.00000000000000
    6    -0.00020771430266     0.00000000000000     0.00000000000000    -0.00005746755281    -0.00000000000000
    7    -0.00000000000000     0.00000000000000     0.00000000000000    -0.00000000000000    -0.00000000000000
    8     0.00079472756870    -0.00000000000000    -0.00000000000000     0.00021987435599     0.00000000000000
    9    -0.00016924368817     0.00000000000000     0.00000000000000    -0.00004682402927    -0.00000000000000
   10    -0.00000000000000     0.00000000000000     0.00000000000000    -0.00000000000000    -0.00000000000000
   11    -0.00000064216082     0.00000000000000     0.00000000000000    -0.00000017766427    -0.00000000000000
   12     0.00000013675336    -0.00000000000000    -0.00000000000000     0.00000003783505     0.00000000000000
   13     0.00000000000000    -0.00000000000000    -0.00000000000000     0.00000000000000     0.00000000000000
   14     0.00000000000000    -0.00000000000000    -0.00000000000000     0.00000000000000     0.00000000000000
   15    -0.00000000000000     0.00000000000000     0.00000000000000    -0.00000000000000    -0.00000000000000
   16    -0.00000000000000     0.00000000000000     0.00000000000000    -0.00000000000000    -0.00000000000000
   17     0.00000000000000    -0.00000000000000    -0.00000000000000     0.00000000000000     0.00000000000000
   18    -0.00000000000000     0.00000000000000     0.00000000000000    -0.00000000000000    -0.00000000000000
   19    -0.00072898778687     0.00000000000000     0.00000000000000    -0.00020168637213    -0.00000000000000
   20     0.00015524386789    -0.00000000000000    -0.00000000000000     0.00004295075044     0.00000000000000
   21    -0.00000000000000     0.00000000000000     0.00000000000000    -0.00000000000000    -0.00000000000000
   22    -0.00050758618254     0.00000000000000     0.00000000000000    -0.00014043200386    -0.00000000000000
   23     0.00010809459868    -0.00000000000000    -0.00000000000000     0.00002990613539     0.00000000000000
   24     0.00000000000000    -0.00000000000000    -0.00000000000000     0.00000000000000     0.00000000000000
   25    -0.00001190717573     0.00000000000000     0.00000000000000    -0.00000329431455    -0.00000000000000
   26     0.00000253572975    -0.00000000000000    -0.00000000000000     0.00000070155103     0.00000000000000
   27    -0.00000000000000     0.00000000000000     0.00000000000000    -0.00000000000000    -0.00000000000000
   28    -0.00000000000000     0.00000000000000     0.00000000000000    -0.00000000000000    -0.00000000000000

                26                  27                  28

    1    -0.00000000000000     0.00000000000000    -0.00000000000000
    2     0.00000000000000    -0.00000000000000     0.00000000000000
    3    -0.00000000000000     0.00000000000000    -0.00000000000000
    4    -0.00000000000000     0.00000000000000    -0.00000000000000
    5     0.00000000000000    -0.00000000000000     0.00000000000000
    6    -0.00000000000000     0.00000000000000    -0.00000000000000
    7    -0.00000000000000     0.00000000000000    -0.00000000000000
    8     0.00000000000000    -0.00000000000000     0.00000000000000
    9    -0.00000000000000     0.00000000000000    -0.00000000000000
   10    -0.00000000000000     0.00000000000000    -0.00000000000000
   11    -0.00000000000000     0.00000000000000    -0.00000000000000
   12     0.00000000000000    -0.00000000000000     0.00000000000000
   13     0.00000000000000    -0.00000000000000     0.00000000000000
   14     0.00000000000000    -0.00000000000000     0.00000000000000
   15    -0.00000000000000     0.00000000000000    -0.00000000000000
   16    -0.00000000000000     0.00000000000000    -0.00000000000000
   17     0.00000000000000    -0.00000000000000     0.00000000000000
   18    -0.00000000000000     0.00000000000000    -0.00000000000000
   19    -0.00000000000000     0.00000000000000    -0.00000000000000
   20     0.00000000000000    -0.00000000000000     0.00000000000000
   21    -0.00000000000000     0.00000000000000    -0.00000000000000
   22    -0.00000000000000     0.00000000000000    -0.00000000000000
   23     0.00000000000000    -0.00000000000000     0.00000000000000
   24     0.00000000000000    -0.00000000000000     0.00000000000000
   25    -0.00000000000000     0.00000000000000    -0.00000000000000
   26     0.00000000000000    -0.00000000000000     0.00000000000000
   27    -0.00000000000000     0.00000000000000    -0.00000000000000
   28    -0.00000000000000     0.00000000000000    -0.00000000000000



  ## TempMatrix (Symmetry 0) ##
  Irrep: 1 Size: 28 x 28

                 1                   2                   3                   4                   5

    1     3.57762484131829    -1.16612459986570     0.45897500646924     0.00987519745838     0.00000000000000
    2    -1.16484207325685     1.16103969587171     0.52068559478728     0.05000240691488     0.00000000000000
    3     0.45975935686129     0.51878268599852     0.69965103491600     0.05213708453667     0.00000000000000
    4     0.01066336812498     0.06820308491892     0.06730593547661     0.78799445515013    -0.00000000000000
    5     0.00000000000000     0.00000000000000     0.00000000000000    -0.00000000000000     0.40484978010606
    6     0.00000000000000    -0.00000000000000    -0.00000000000000     0.00000000000000    -0.01136323679543
    7     0.00500280825744     0.05067183398192     0.12011703115215     0.46671565427670    -0.00000000000000
    8     0.00000000000000     0.00000000000000     0.00000000000000    -0.00000000000000     0.24719452803105
    9     0.00000000000000    -0.00000000000000    -0.00000000000000     0.00000000000000    -0.00563682409784
   10     0.01554372905286     0.17722769050631     0.20277202371878     0.28663081695722    -0.00000000000000
   11    -0.00000000000000    -0.00000000000000    -0.00000000000000     0.00000000000000     0.11180141096888
   12     0.00000000000000    -0.00000000000000    -0.00000000000000     0.00000000000000     0.00346187434290
   13     0.00165506234939     0.01671685937583     0.01612275027913    -0.00492358795826     0.00000000000000
   14    -0.00073840547477    -0.00745822082694    -0.00719315926610     0.00219665700524    -0.00000000000000
   15     0.00177123944050     0.02580987705332     0.03718675908344     0.03973559355242    -0.00000000000000
   16     0.04627368603376     0.32541648943653     0.46087496353309     0.50307034809866    -0.00000000000000
   17     0.20235448728398     0.37302520404966     0.55706262459846     0.43851082210271     0.00000000000000
   18    -0.08763202963610    -0.32495153358621    -0.21133225949607    -0.47518198969161     0.00000000000000
   19    -0.00000000000000    -0.00000000000000    -0.00000000000000     0.00000000000000     0.27620164065109
   20     0.00000000000000    -0.00000000000000    -0.00000000000000     0.00000000000000     0.00378942098085
   21    -0.43320807286586    -0.35200267355517    -0.41494686981510    -0.21411335695908     0.00000000000000
   22    -0.00000000000000     0.00000000000000     0.00000000000000     0.00000000000000     0.26348226549575
   23    -0.00000000000000    -0.00000000000000    -0.00000000000000     0.00000000000000     0.00021239182878
   24     0.15520752485173     0.10450677791475     0.10411935951086     0.17782821586058    -0.00000000000000
   25     0.00000000000000     0.00000000000000     0.00000000000000     0.00000000000000    -0.13237527812348
   26     0.00000000000000     0.00000000000000     0.00000000000000    -0.00000000000000     0.00090685120257
   27    -0.00010596636565    -0.00138199633022    -0.00273673392108    -0.00310850501953    -0.00000000000000
   28     0.00004727685611     0.00061657716806     0.00122099285931     0.00138685840181    -0.00000000000000

                 6                   7                   8                   9                  10

    1    -0.00000000000000     0.00441454340376     0.00000000000000    -0.00000000000000     0.01421797892764
    2     0.00000000000000     0.03778644511963     0.00000000000000     0.00000000000000     0.17956512106632
    3    -0.00000000000000     0.10826101958357     0.00000000000000    -0.00000000000000     0.20459931076050
    4     0.00000000000000     0.46741248865601    -0.00000000000000     0.00000000000000     0.24812135224241
    5    -0.01136323679543    -0.00000000000000     0.25515206854362    -0.00811120895876    -0.00000000000000
    6     0.35391065240488    -0.00000000000000    -0.00811120895876     0.21879113403177     0.00000000000000
    7     0.00000000000000     0.47450174770236    -0.00000000000000     0.00000000000000     0.23666803253643
    8    -0.00563682409784    -0.00000000000000     0.21497586661357    -0.00449370646298    -0.00000000000000
    9     0.22192576810656    -0.00000000000000    -0.00449370646298     0.19483147540794     0.00000000000000
   10     0.00000000000000     0.26210581863466     0.00000000000000     0.00000000000000     0.37793490958032
   11     0.00346187434290     0.00000000000000     0.10858207266089     0.00297329855312    -0.00000000000000
   12     0.12732030425722    -0.00000000000000     0.00297329855312     0.12191077797767     0.00000000000000
   13     0.00000000000000    -0.00300219635896     0.00000000000000     0.00000000000000    -0.00388912463528
   14    -0.00000000000000     0.00133942883095    -0.00000000000000    -0.00000000000000     0.00173513156397
   15     0.00000000000000     0.05124008780722    -0.00000000000000     0.00000000000000     0.05502718923132
   16    -0.00000000000000     0.62949116584973     0.00000000000000    -0.00000000000000     0.50615624851474
   17    -0.00000000000000     0.56542156581593     0.00000000000000    -0.00000000000000     0.42587442635354
   18    -0.00000000000000    -0.06654589600345    -0.00000000000000    -0.00000000000000    -0.23891255204879
   19     0.00378942098085    -0.00000000000000     0.28984098184996     0.00402819911470    -0.00000000000000
   20     0.29318886029034    -0.00000000000000     0.00402819911470     0.30789859631349     0.00000000000000
   21     0.00000000000000     0.01784484872653    -0.00000000000000    -0.00000000000000    -0.10571305181512
   22     0.00021239182878    -0.00000000000000     0.26071677753833     0.00094618035539     0.00000000000000
   23     0.26443437576889    -0.00000000000000     0.00094618035539     0.26495831565104     0.00000000000000
   24     0.00000000000000     0.03517680194646    -0.00000000000000     0.00000000000000     0.06990417868897
   25     0.00090685120257    -0.00000000000000    -0.07803970199532     0.00092229580703    -0.00000000000000
   26    -0.12831004477095    -0.00000000000000     0.00092229580703    -0.07390523355660    -0.00000000000000
   27     0.00000000000000    -0.00448742511788    -0.00000000000000     0.00000000000000    -0.00326821261653
   28     0.00000000000000     0.00200206311013    -0.00000000000000     0.00000000000000     0.00145811188905

                11                  12                  13                  14                  15

    1    -0.00000000000000    -0.00000000000000     0.00147435234901    -0.00065778177279     0.00151317293126
    2    -0.00000000000000     0.00000000000000     0.00680856943300    -0.00303764081549     0.02323392579278
    3    -0.00000000000000     0.00000000000000     0.00617910111394    -0.00275680375025     0.03385207667140
    4     0.00000000000000    -0.00000000000000    -0.00122807058535     0.00054790325208     0.03626464092390
    5     0.11976925338455    -0.00445553596487     0.00000000000000     0.00000000000000    -0.00000000000000
    6    -0.00445553596487     0.09979597292075    -0.00000000000000     0.00000000000000     0.00000000000000
    7     0.00000000000000    -0.00000000000000    -0.00191026348793     0.00085226337139     0.04736947073662
    8     0.10966574543791    -0.00188358573133     0.00000000000000    -0.00000000000000    -0.00000000000000
    9    -0.00188358573133     0.10122200569792    -0.00000000000000     0.00000000000000     0.00000000000000
   10     0.00000000000000     0.00000000000000    -0.00508555555479     0.00226891879046     0.05304232622930
   11     0.27139864864166     0.00100956948144    -0.00000000000000     0.00000000000000    -0.00000000000000
   12     0.00100956948144     0.27592434758325    -0.00000000000000    -0.00000000000000     0.00000000000000
   13    -0.00000000000000     0.00000000000000     0.10823290685555    -0.00000000000000     0.00015948420553
   14    -0.00000000000000    -0.00000000000000     0.00000000000000     0.10823290685555    -0.00007115382121
   15     0.00000000000000     0.00000000000000    -0.00024022762738     0.00010717746997     0.16818397139271
   16    -0.00000000000000     0.00000000000000    -0.00115541569809     0.00051548830013     0.03431736255053
   17    -0.00000000000000     0.00000000000000     0.00054971684651    -0.00024525597431     0.08568131159056
   18    -0.00000000000000    -0.00000000000000    -0.00023192431190     0.00010347294874    -0.00453824331752
   19     0.35343130899969     0.00439189132274    -0.00000000000000     0.00000000000000    -0.00000000000000
   20     0.00439189132274     0.37311928320689    -0.00000000000000    -0.00000000000000     0.00000000000000
   21     0.00000000000000    -0.00000000000000    -0.00466873708208     0.00208295537806    -0.00375481585903
   22     0.25379012759768     0.00162507161546     0.00000000000000    -0.00000000000000    -0.00000000000000
   23     0.00162507161546     0.26107500003620    -0.00000000000000    -0.00000000000000     0.00000000000000
   24    -0.00000000000000     0.00000000000000     0.00159999556433    -0.00071383744833     0.00516010007101
   25    -0.14626046440129     0.00058457271860     0.00000000000000    -0.00000000000000    -0.00000000000000
   26     0.00058457271860    -0.14363994131448     0.00000000000000     0.00000000000000    -0.00000000000000
   27     0.00000000000000    -0.00000000000000     0.05590528752114     0.00000000000000    -0.00161093637403
   28    -0.00000000000000     0.00000000000000    -0.00000000000000     0.05590528752114     0.00071871868666

                16                  17                  18                  19                  20

    1     0.04459822421788     0.20113595197434    -0.08560786312750     0.00000000000000    -0.00000000000000
    2     0.31333636468598     0.36514350111118    -0.30891439718891    -0.00000000000000     0.00000000000000
    3     0.44340311515505     0.54714606632078    -0.20486991002884    -0.00000000000000     0.00000000000000
    4     0.47916119710503     0.43526728172277    -0.44226064745927     0.00000000000000     0.00000000000000
    5    -0.00000000000000    -0.00000000000000     0.00000000000000     0.26428973744571    -0.00867730085122
    6    -0.00000000000000    -0.00000000000000     0.00000000000000    -0.00867730085122     0.22539112571042
    7     0.60247928569956     0.56057283573949    -0.06208193272665    -0.00000000000000     0.00000000000000
    8     0.00000000000000     0.00000000000000     0.00000000000000     0.26483374102238    -0.00380769258891
    9    -0.00000000000000    -0.00000000000000    -0.00000000000000    -0.00380769258891     0.24776461340275
   10     0.51058100751915     0.44053202863027    -0.24680439765562     0.00000000000000     0.00000000000000
   11    -0.00000000000000    -0.00000000000000    -0.00000000000000     0.32512210911380     0.00411189876165
   12    -0.00000000000000     0.00000000000000    -0.00000000000000     0.00411189876165     0.34355493242680
   13     0.00108642268600     0.00552410926807    -0.00181642393184     0.00000000000000     0.00000000000000
   14    -0.00048470709249    -0.00246457937267     0.00081039688703    -0.00000000000000    -0.00000000000000
   15     0.03908586882991     0.09143336188490    -0.00554536742638    -0.00000000000000     0.00000000000000
   16     1.18479241611480     1.03751870619659    -0.01003096315546    -0.00000000000000     0.00000000000000
   17     1.00954311528413     0.99510018221971    -0.03203522053262    -0.00000000000000     0.00000000000000
   18    -0.00591816181399    -0.02741009194796     1.10084237073449    -0.00000000000000     0.00000000000000
   19    -0.00000000000000    -0.00000000000000    -0.00000000000000     0.93586558314152     0.01168421237383
   20    -0.00000000000000    -0.00000000000000    -0.00000000000000     0.01168421237383     0.98824358044222
   21    -0.02693149899253    -0.10977793860317     0.62788656842337    -0.00000000000000     0.00000000000000
   22    -0.00000000000000    -0.00000000000000    -0.00000000000000     0.54770725083389     0.00450531821016
   23    -0.00000000000000    -0.00000000000000    -0.00000000000000     0.00450531821016     0.56790369518977
   24     0.07285150646408     0.08488900613485    -0.11997478888885    -0.00000000000000     0.00000000000000
   25    -0.00000000000000    -0.00000000000000    -0.00000000000000    -0.07345516937619     0.00188742638595
   26    -0.00000000000000    -0.00000000000000    -0.00000000000000     0.00188742638595    -0.06499421274639
   27    -0.00642051240324    -0.00654294650825     0.00161951936411    -0.00000000000000    -0.00000000000000
   28     0.00286450931057     0.00291913324269    -0.00072254798461    -0.00000000000000     0.00000000000000

                21                  22                  23                  24                  25

    1    -0.43233471562321     0.00000000000000    -0.00000000000000     0.15451274545845     0.00000000000000
    2    -0.34852751907415     0.00000000000000     0.00000000000000     0.10168667907521     0.00000000000000
    3    -0.41078120247998     0.00000000000000     0.00000000000000     0.10391527797306     0.00000000000000
    4    -0.22360740430941     0.00000000000000     0.00000000000000     0.17992927562724     0.00000000000000
    5     0.00000000000000     0.27641640132123    -0.00931075004962    -0.00000000000000    -0.13248641183037
    6     0.00000000000000    -0.00931075004962     0.23467816297333     0.00000000000000     0.00335147911332
    7     0.01131536914697     0.00000000000000     0.00000000000000     0.04013398364228     0.00000000000000
    8     0.00000000000000     0.26205673054299    -0.00459153040102    -0.00000000000000    -0.07691371390691
    9     0.00000000000000    -0.00459153040102     0.24147381410358     0.00000000000000     0.00160506834867
   10    -0.11256530027044     0.00000000000000     0.00000000000000     0.07710747694493     0.00000000000000
   11     0.00000000000000     0.25297747567086     0.00367683665367    -0.00000000000000    -0.14183410126902
   12     0.00000000000000     0.00367683665367     0.26946000219120     0.00000000000000    -0.00083540546858
   13    -0.01014564551045     0.00000000000000     0.00000000000000     0.00081475872710     0.00000000000000
   14     0.00452647611298    -0.00000000000000    -0.00000000000000    -0.00036350431446     0.00000000000000
   15    -0.00477615114474    -0.00000000000000     0.00000000000000     0.00570430121981    -0.00000000000000
   16    -0.02646617482579     0.00000000000000     0.00000000000000     0.07895688684893    -0.00000000000000
   17    -0.11106681223321     0.00000000000000     0.00000000000000     0.08932707961478    -0.00000000000000
   18     0.66695708798774    -0.00000000000000    -0.00000000000000    -0.13185417477577    -0.00000000000000
   19    -0.00000000000000     0.59633043813972     0.00777152482238    -0.00000000000000    -0.08196012228680
   20     0.00000000000000     0.00777152482238     0.63116863631220     0.00000000000000    -0.00118339376807
   21     0.62090950849177    -0.00000000000000    -0.00000000000000    -0.11729027822420    -0.00000000000000
   22    -0.00000000000000     0.45736545187662     0.00302704636793    -0.00000000000000    -0.07090346184474
   23     0.00000000000000     0.00302704636793     0.47093509794395     0.00000000000000     0.00015751488332
   24    -0.11576117549052    -0.00000000000000     0.00000000000000     0.35725812005903     0.00000000000000
   25    -0.00000000000000    -0.07034274029810     0.00166603577848     0.00000000000000     0.32517540573441
   26    -0.00000000000000     0.00166603577848    -0.06287423367428    -0.00000000000000     0.00083586659856
   27     0.00092977195910    -0.00000000000000     0.00000000000000     0.00364203661389    -0.00000000000000
   28    -0.00041481742675    -0.00000000000000     0.00000000000000    -0.00162489333166     0.00000000000000

                26                  27                  28

    1    -0.00000000000000     0.00048806367209    -0.00021774943261
    2    -0.00000000000000     0.00129243289173    -0.00057661847204
    3    -0.00000000000000    -0.00025299955300     0.00011287566002
    4    -0.00000000000000    -0.00144925577750     0.00064658494639
    5     0.00335147911332     0.00000000000000     0.00000000000000
    6    -0.11746239837233    -0.00000000000000    -0.00000000000000
    7    -0.00000000000000    -0.00427098608602     0.00190549891353
    8     0.00160506834867     0.00000000000000    -0.00000000000000
    9    -0.06971851212998    -0.00000000000000    -0.00000000000000
   10    -0.00000000000000    -0.00473376987389     0.00211196973484
   11    -0.00083540546858     0.00000000000000    -0.00000000000000
   12    -0.14557905762367    -0.00000000000000     0.00000000000000
   13    -0.00000000000000     0.05130469317597    -0.00000000000000
   14     0.00000000000000     0.00000000000000     0.05130469317597
   15    -0.00000000000000    -0.00167468110064     0.00074715837362
   16    -0.00000000000000    -0.00702668501042     0.00313495300228
   17    -0.00000000000000    -0.00614590205866     0.00274199200362
   18     0.00000000000000    -0.00046724082137     0.00020845932521
   19    -0.00118339376807     0.00000000000000    -0.00000000000000
   20    -0.08726504089036    -0.00000000000000    -0.00000000000000
   21     0.00000000000000    -0.00254866340459     0.00113708526570
   22     0.00015751488332     0.00000000000000    -0.00000000000000
   23    -0.07019735399002    -0.00000000000000    -0.00000000000000
   24    -0.00000000000000     0.00466994430997    -0.00208349398235
   25     0.00083586659856    -0.00000000000000     0.00000000000000
   26     0.32892242924293     0.00000000000000    -0.00000000000000
   27     0.00000000000000     0.28162575955889     0.00000000000000
   28    -0.00000000000000    -0.00000000000000     0.28162575955889




  Element (0,2)
 det U = -1.000000, det V = -1.000000
 det U = -1.000000, det V = 1.000000
  Corresponding orbitals:

  Alpha: 
  Beta:  MO = 6, s = 2.100943e-16
  Stilde = -0.872839

  Noncoincidences: 0a + 1b 

  Element (0,3)
 det U = -1.000000, det V = -1.000000
 det U = 1.000000, det V = 1.000000
  Corresponding orbitals:

  Alpha:  MO = 6, s = 3.086102e-17
  Beta: 
  Stilde = 0.867024

  Noncoincidences: 1a + 0b 
  ## D_BA (Symmetry 0) ##
  Irrep: 1 Size: 28 x 28

                 1                   2                   3                   4                   5

    1     0.00000000000000     0.00000000000000     0.00000000000000     0.00000000000000    -0.00000000000000
    2     0.00000000000000     0.00000000000000     0.00000000000000     0.00000000000000    -0.00000000000000
    3     0.00000000000000     0.00000000000000     0.00000000000000     0.00000000000000    -0.00000000000000
    4     0.00000000000000     0.00000000000000     0.00000000000000     0.00000000000000    -0.00000000000000
    5     0.00000480797605     0.00000998421266     0.00021336681553     0.00005292457754    -0.00000000000000
    6     0.00002257709670     0.00004688345627     0.00100191914028     0.00024852106031    -0.00000000000000
    7     0.00000000000000     0.00000000000000     0.00000000000000     0.00000000000000    -0.00000000000000
    8     0.00000398715913     0.00000827970944     0.00017694086617     0.00004388930194    -0.00000000000000
    9     0.00001872273828     0.00003887951995     0.00083087166141     0.00020609358377    -0.00000000000000
   10     0.00000000000000     0.00000000000000     0.00000000000000     0.00000000000000    -0.00000000000000
   11     0.00000002304459     0.00000004785424     0.00000102266525     0.00000025366703    -0.00000000000000
   12     0.00000010821182     0.00000022471199     0.00000480218951     0.00000119115923    -0.00000000000000
   13    -0.00000000000000    -0.00000000000000    -0.00000000000000    -0.00000000000000     0.00000000000000
   14     0.00000000000000     0.00000000000000     0.00000000000000     0.00000000000000    -0.00000000000000
   15    -0.00000000000000    -0.00000000000000    -0.00000000000000    -0.00000000000000     0.00000000000000
[...]
   24     0.15385566149964     0.09954884115139     0.10205600791076     0.16915969711375    -0.00000000000000
   25     0.00000000000000     0.00000000000000    -0.00000000000000    -0.00000000000000    -0.12896828403344
   26     0.00000000000000    -0.00000000000000    -0.00000000000000    -0.00000000000000     0.00395251490114
   27     0.00032055025799     0.00085416091285    -0.00120668772911    -0.00317357668473    -0.00000000000000
   28    -0.00014301338286    -0.00038108358553     0.00053836329842     0.00141589010195     0.00000000000000

                 6                   7                   8                   9                  10

    1     0.00000000000000     0.00478401655347    -0.00000000000000    -0.00000000000000     0.01387847054585
    2    -0.00000000000000     0.04628591599594     0.00000000000000     0.00000000000000     0.16867966811270
    3    -0.00000000000000     0.11589042917676     0.00000000000000     0.00000000000000     0.19550311666161
    4     0.00000000000000     0.44886465582115    -0.00000000000000    -0.00000000000000     0.28789108001934
    5    -0.01815036839293     0.00000000000000     0.24979232154355    -0.01260844170780    -0.00000000000000
    6     0.31996534804361    -0.00000000000000    -0.01260844170780     0.19327118818789    -0.00000000000000
    7     0.00000000000000     0.45935929070909    -0.00000000000000    -0.00000000000000     0.26530626440997
    8    -0.01100524393334     0.00000000000000     0.20934666420087    -0.00864937063596    -0.00000000000000
    9     0.19559321230119    -0.00000000000000    -0.00864937063596     0.17057325805863    -0.00000000000000
   10     0.00000000000000     0.26365177983783     0.00000000000000    -0.00000000000000     0.39296016903288
   11    -0.00208374262409     0.00000000000000     0.10272511156429    -0.00118090985682    -0.00000000000000
   12     0.09807506292950    -0.00000000000000    -0.00118090985682     0.09743132784027     0.00000000000000
   13     0.00000000000000    -0.00263960434036    -0.00000000000000     0.00000000000000    -0.00696329732272
   14     0.00000000000000     0.00117765853164     0.00000000000000     0.00000000000000     0.00310667260811
   15     0.00000000000000     0.05461213309205     0.00000000000000     0.00000000000000     0.06121061919599
   16     0.00000000000000     0.62589905862632     0.00000000000000    -0.00000000000000     0.53413291551948
   17     0.00000000000000     0.55937586873269     0.00000000000000    -0.00000000000000     0.44640452366057
   18    -0.00000000000000    -0.06442761613700    -0.00000000000000     0.00000000000000    -0.26241831840268
   19    -0.00617282765467     0.00000000000000     0.28071305297550    -0.00350601875190    -0.00000000000000
   20     0.24517494101508    -0.00000000000000    -0.00350601875190     0.26499626909245    -0.00000000000000
   21    -0.00000000000000     0.01461515873764    -0.00000000000000    -0.00000000000000    -0.10877321256389
   22    -0.00818247883582     0.00000000000000     0.25101159643922    -0.00569849161315    -0.00000000000000
   23     0.22289307482332    -0.00000000000000    -0.00569849161315     0.22546639332396    -0.00000000000000
   24     0.00000000000000     0.03357138212258    -0.00000000000000     0.00000000000000     0.07207066980080
   25     0.00395251490114    -0.00000000000000    -0.07565054087973     0.00291995697282     0.00000000000000
   26    -0.11124994682771    -0.00000000000000     0.00291995697282    -0.06256095524509     0.00000000000000
   27     0.00000000000000    -0.00683501717963    -0.00000000000000     0.00000000000000    -0.00828263455180
   28     0.00000000000000     0.00304944046819    -0.00000000000000     0.00000000000000     0.00369529444062

                11                  12                  13                  14                  15

    1    -0.00000000000000     0.00000000000000     0.00177020578693    -0.00078977667822     0.00166439856562
    2     0.00000000000000     0.00000000000000     0.00256937893273    -0.00114632749117     0.02641147953837
    3     0.00000000000000     0.00000000000000     0.00316569425322    -0.00141237335796     0.03879979460258
    4    -0.00000000000000     0.00000000000000     0.00647089238762    -0.00288698632256     0.04179296714367
    5     0.11550460009738    -0.00464860437171    -0.00000000000001     0.00000000000000     0.00000000000000
    6    -0.00464860437171     0.09466583241301     0.00000000000000    -0.00000000000000    -0.00000000000000
    7    -0.00000000000000     0.00000000000000     0.00456214039853    -0.00203539730584     0.05479740086064
    8     0.10611311667547    -0.00209878256105    -0.00000000000000     0.00000000000000     0.00000000000000
    9    -0.00209878256105     0.09670469240175     0.00000000000000    -0.00000000000000     0.00000000000000
   10    -0.00000000000000     0.00000000000000    -0.00376598843763     0.00168019439346     0.06137894167218
   11     0.26222290138459     0.00022112851556    -0.00000000000000     0.00000000000000     0.00000000000000
   12     0.00022112851555     0.26321417648473     0.00000000000000     0.00000000000000     0.00000000000000
   13    -0.00000000000000     0.00000000000000     0.10329944826253     0.00012597403222    -0.00014494597324
   14     0.00000000000000     0.00000000000000     0.00012597403222     0.10352560324325     0.00006466759408
   15     0.00000000000000     0.00000000000000     0.00010044960022    -0.00004481555318     0.18640285042348
   16     0.00000000000000     0.00000000000000     0.00243684968524    -0.00108719961483     0.04444901502475
   17     0.00000000000000     0.00000000000000     0.00400629797358    -0.00178740840691     0.09893859129483
   18     0.00000000000000    -0.00000000000000    -0.00183256340880     0.00081759750889    -0.00496956874063
   19     0.34826059639120     0.00400653824937    -0.00000000000001     0.00000000000000     0.00000000000000
   20     0.00400653824936     0.36622110950895     0.00000000000000     0.00000000000000     0.00000000000000
   21     0.00000000000000    -0.00000000000000    -0.00391754706807     0.00174781222219    -0.00411679740429
   22     0.24651406413386     0.00104231173554    -0.00000000000001     0.00000000000000     0.00000000000000
   23     0.00104231173553     0.25118654008038     0.00000000000000    -0.00000000000000     0.00000000000000
   24    -0.00000000000000     0.00000000000000     0.00073268170276    -0.00032688567943     0.00504972829410
   25    -0.14253013280872     0.00122641541656     0.00000000000000    -0.00000000000000    -0.00000000000000
   26     0.00122641541656    -0.13703235672227    -0.00000000000000     0.00000000000000     0.00000000000000
   27    -0.00000000000000     0.00000000000000     0.05153190381608     0.00000890792452    -0.00458607985888
   28     0.00000000000000     0.00000000000000     0.00000890792452     0.05154789577460     0.00204607788751

                16                  17                  18                  19                  20

    1     0.04493578163891     0.20046624986914    -0.08583143253895    -0.00000000000000    -0.00000000000000
    2     0.31949227025000     0.36556541905249    -0.31449416089464    -0.00000000000000     0.00000000000000
    3     0.45465591755988     0.54742249229278    -0.20496880237881    -0.00000000000000     0.00000000000000
    4     0.49843638295264     0.43238387643862    -0.46170832279806    -0.00000000000000     0.00000000000000
    5    -0.00000000000000     0.00000000000000     0.00000000000000     0.27188901197808    -0.00586226507039
    6     0.00000000000000    -0.00000000000000     0.00000000000000    -0.00586226507039     0.24560964506755
    7     0.62617748583120     0.55877414299521    -0.06463943309763    -0.00000000000000     0.00000000000000
    8    -0.00000000000000     0.00000000000000     0.00000000000000     0.27259083475481    -0.00034849337177
    9     0.00000000000000    -0.00000000000000     0.00000000000000    -0.00034849337177     0.27102860836748
   10     0.53449303881818     0.44680826757098    -0.26105019954434     0.00000000000000     0.00000000000000
   11    -0.00000000000000     0.00000000000000     0.00000000000000     0.33637461580791     0.00880143859500
   12     0.00000000000000    -0.00000000000000     0.00000000000000     0.00880143859500     0.37582971232806
   13     0.00020974844093     0.00649117914476    -0.00225697981368    -0.00000000000000     0.00000000000000
   14    -0.00009357919184    -0.00289603725200     0.00100695073602     0.00000000000000     0.00000000000000
   15     0.04403405790944     0.09863223277424    -0.00509086609932     0.00000000000000     0.00000000000000
   16     1.23481159002375     1.04702613240474    -0.00884469399569    -0.00000000000000     0.00000000000000
   17     1.04684622780401     0.99722389677749    -0.02848307309449    -0.00000000000000     0.00000000000000
   18    -0.01061467561802    -0.02932686094286     1.16361854260494    -0.00000000000000     0.00000000000000
   19    -0.00000000000000     0.00000000000000     0.00000000000000     0.97790070588027     0.02723537844917
   20     0.00000000000000    -0.00000000000000     0.00000000000000     0.02723537844916     1.09999148386794
   21    -0.02648634844549    -0.11067449756671     0.65084436725180     0.00000000000000     0.00000000000000
   22    -0.00000000000000     0.00000000000000     0.00000000000000     0.56565271826237     0.01283777251205
   23     0.00000000000000    -0.00000000000000     0.00000000000000     0.01283777251205     0.62320189594501
   24     0.07125946733152     0.08232285870068    -0.12393641519091    -0.00000000000000     0.00000000000000
   25     0.00000000000000     0.00000000000000    -0.00000000000000    -0.07720072937155     0.00171041528858
   26     0.00000000000000     0.00000000000000     0.00000000000000     0.00171041528858    -0.06953327824161
   27    -0.01475074215876    -0.01130335657951    -0.00085167240386    -0.00000000000000     0.00000000000000
   28     0.00658103833428     0.00504298849205     0.00037997333814     0.00000000000000     0.00000000000000

                21                  22                  23                  24                  25

    1    -0.43069844797997    -0.00000000000000     0.00000000000000     0.15396490352378     0.00000000000000
    2    -0.34256053226396     0.00000000000000     0.00000000000000     0.09968846305990     0.00000000000000
    3    -0.40790969412938     0.00000000000000    -0.00000000000000     0.10252241339822     0.00000000000000
    4    -0.20619473724766     0.00000000000000    -0.00000000000000     0.16901313759331     0.00000000000000
    5     0.00000000000000     0.26639286245348    -0.01048634023313     0.00000000000000    -0.13321374170349
    6    -0.00000000000000    -0.01048634023313     0.21938468741763     0.00000000000000     0.00540298832444
    7     0.01606760844307     0.00000000000000    -0.00000000000000     0.03423468319836     0.00000000000000
    8    -0.00000000000000     0.25115709756004    -0.00558154260781     0.00000000000000    -0.07772337267839
    9    -0.00000000000000    -0.00558154260781     0.22613615354670     0.00000000000000     0.00371376788881
   10    -0.10840775627888     0.00000000000000    -0.00000000000000     0.07169748064348     0.00000000000000
   11    -0.00000000000000     0.24260751438295     0.00242363104980     0.00000000000000    -0.14295614800847
   12    -0.00000000000000     0.00242363104980     0.25347216974206     0.00000000000000     0.00151299023247
   13    -0.01342050529611    -0.00000000000000     0.00000000000000     0.00209815052258     0.00000000000000
   14     0.00598755363416     0.00000000000000     0.00000000000000    -0.00093608910464    -0.00000000000000
   15    -0.00413321271182     0.00000000000000     0.00000000000000     0.00483950883211     0.00000000000000
   16    -0.02578834391189     0.00000000000000    -0.00000000000000     0.07246818013370     0.00000000000000
   17    -0.11005577359041     0.00000000000000    -0.00000000000000     0.08368288404563     0.00000000000000
   18     0.64890056431232    -0.00000000000000    -0.00000000000000    -0.12077082478701    -0.00000000000000
   19    -0.00000000000000     0.57935940337176     0.00735406217844     0.00000000000000    -0.08499370147707
   20    -0.00000000000000     0.00735406217845     0.61232619964416     0.00000000000000     0.00505834199531
   21     0.60294752530437    -0.00000000000000    -0.00000000000000    -0.11156313685606    -0.00000000000000
   22    -0.00000000000000     0.43770921655202     0.00164292895377     0.00000000000000    -0.07262371929858
   23    -0.00000000000000     0.00164292895377     0.44507413988209     0.00000000000000     0.00447341093984
   24    -0.11292151647590    -0.00000000000000     0.00000000000000     0.36215654861428     0.00000000000000
   25    -0.00000000000000    -0.06907537793730     0.00288611380548     0.00000000000000     0.33082936510339
   26     0.00000000000000     0.00288611380548    -0.05613750448240    -0.00000000000000     0.00125579396611
   27    -0.00325318705704    -0.00000000000000     0.00000000000000     0.00844105540749     0.00000000000000
   28     0.00145140824106     0.00000000000000     0.00000000000000    -0.00376597384868     0.00000000000000

                26                  27                  28

    1     0.00000000000000     0.00048459765810    -0.00021620307171
    2    -0.00000000000000    -0.00015877033518     0.00007083532821
    3    -0.00000000000000    -0.00357023025852     0.00159285695192
    4    -0.00000000000000    -0.00319529551323     0.00142557994951
    5     0.00540298832444    -0.00000000000000     0.00000000000000
    6    -0.10899322098557     0.00000000000000     0.00000000000000
    7    -0.00000000000000    -0.00923217714572     0.00411893252902
    8     0.00371376788881    -0.00000000000000     0.00000000000000
    9    -0.06107529078532     0.00000000000000     0.00000000000000
   10    -0.00000000000000    -0.00849586315360     0.00379042630499
   11     0.00151299023247    -0.00000000000000     0.00000000000000
   12    -0.13617371409023     0.00000000000000     0.00000000000001
   13    -0.00000000000000     0.05154895364495     0.00000377977337
   14    -0.00000000000000     0.00000377977337     0.05155573928607
   15     0.00000000000000    -0.00376998602744     0.00168197791672
   16    -0.00000000000000    -0.01691595310973     0.00754704642505
   17    -0.00000000000000    -0.01497121225690     0.00667940098966
   18     0.00000000000000    -0.00333126182419     0.00148624127048
   19     0.00505834199531    -0.00000000000001     0.00000000000000
   20    -0.06231816162043     0.00000000000000     0.00000000000001
   21     0.00000000000000    -0.00417897400333     0.00186444775577
   22     0.00447341093984    -0.00000000000001     0.00000000000000
   23    -0.05257030888160     0.00000000000000     0.00000000000001
   24    -0.00000000000000     0.00866134302188    -0.00386425508899
   25     0.00125579396611     0.00000000000000    -0.00000000000000
   26     0.33645883937713    -0.00000000000000    -0.00000000000000
   27    -0.00000000000000     0.29209612816420     0.00000394502937
   28    -0.00000000000000     0.00000394502937     0.29210321048128




  Element (3,2)
 det U = -1.000000, det V = -1.000000
 det U = -1.000000, det V = 1.000000
  Corresponding orbitals:

  Alpha:  MO = 6, s = 3.817755e-16
  Beta:  MO = 6, s = 2.023307e-16
  Stilde = -0.946806

  Noncoincidences: 1a + 1b 

  Element (3,3)
 det U = 1.000000, det V = 1.000000
 det U = 1.000000, det V = 1.000000
  Corresponding orbitals:

  Alpha: 
  Beta: 
  Stilde = 1.000000

  Noncoincidences: 0a + 0b 

  Element (3,4)
 det U = -1.000000, det V = -1.000000
 det U = 1.000000, det V = 1.000000
  Corresponding orbitals:

  Alpha:  MO = 6, s = 3.474290e-16
  Beta:  MO = 6, s = 3.225035e-16
  Stilde = 0.907075

  Noncoincidences: 1a + 1b 

  Element (4,0)
 det U = 1.000000, det V = 1.000000
 det U = 1.000000, det V = 1.000000
  Corresponding orbitals:

  Alpha: 
  Beta:  MO = 6, s = 3.033663e-17
  Stilde = 0.867024

  Noncoincidences: 0a + 1b 

  Element (4,1)
 det U = -1.000000, det V = 1.000000
 det U = -1.000000, det V = -1.000000
  Corresponding orbitals:

  Alpha:  MO = 6, s = 2.023307e-16
  Beta:  MO = 6, s = 3.817755e-16
  Stilde = -0.946806

  Noncoincidences: 1a + 1b 

  Element (4,2)
 det U = 1.000000, det V = 1.000000
 det U = 1.000000, det V = -1.000000
  Corresponding orbitals:

  Alpha: 
  Beta:  MO = 6, s = 1.208505e-16
  Stilde = -0.994526

  Noncoincidences: 0a + 1b 

  Element (4,3)
 det U = 1.000000, det V = 1.000000
 det U = -1.000000, det V = -1.000000
  Corresponding orbitals:

  Alpha:  MO = 6, s = 3.225035e-16
  Beta:  MO = 6, s = 3.474290e-16
  Stilde = 0.907075

  Noncoincidences: 1a + 1b 

  Element (4,4)
 det U = 1.000000, det V = 1.000000
 det U = 1.000000, det V = 1.000000
  Corresponding orbitals:

  Alpha: 
  Beta: 
  Stilde = 1.000000

  Noncoincidences: 0a + 0b 
  ## Overlap matrix (Symmetry 0) ##
  Irrep: 1 Size: 5 x 5

                 1                   2                   3                   4                   5

    1     0.99999999999996     0.00000000000000     0.00000000000000     0.00000000000000     0.00000000000000
    2     0.00000000000000     0.99999999999997     0.00000000000000     0.00000000000000     0.00000000000000
    3     0.00000000000000     0.00000000000000     0.99999999999997     0.00000000000000     0.00000000000000
    4     0.00000000000000     0.00000000000000     0.00000000000000     0.99999999999997     0.00000000000000
    5     0.00000000000000     0.00000000000000     0.00000000000000     0.00000000000000     0.99999999999997



  ## Hamiltonian (Symmetry 0) ##
  Irrep: 1 Size: 5 x 5

                 1                   2                   3                   4                   5

    1  -112.74929280373617    -0.00000000000000    -0.00000000000000    -0.00000000000000    -0.00000000000000
    2    -0.00000000000000   -93.05728116786818     0.00500281972542     0.00000000000000     0.00000000000000
    3    -0.00000000000000     0.00500281972542   -93.05728116786818     0.00000000000000     0.00000000000000
    4    -0.00000000000000     0.00000000000000     0.00000000000000   -93.04452678040977     0.00424069443993
    5    -0.00000000000000     0.00000000000000     0.00000000000000     0.00424069443993   -93.04452678040978



  ## S2 (Symmetry 0) ##
  Irrep: 1 Size: 5 x 5

                 1                   2                   3                   4                   5

    1     0.00000000000000     0.00000000000000     0.00000000000000     0.00000000000000     0.00000000000000
    2     0.00000000000000     0.00000000000000     0.00000000000000     0.00000000000000     0.00000000000000
    3     0.00000000000000     0.00000000000000     0.00000000000000     0.00000000000000     0.00000000000000
    4     0.00000000000000     0.00000000000000     0.00000000000000     0.00000000000000     0.00000000000000
    5     0.00000000000000     0.00000000000000     0.00000000000000     0.00000000000000     0.00000000000000




       ==> NOCI Excited State Information <==

    ----------------------------------------------------
      State       Energy (Eh)    Omega (eV)   Osc. Str.
    ----------------------------------------------------
     @NOCI-0          -112.749292803736      0.0000      0.0000
     @NOCI-1           -93.062283987593    535.7107      0.0000
     @NOCI-2           -93.052278348143    535.9829      0.0000
     @NOCI-3           -93.048767474850    536.0785      0.0000
     @NOCI-4           -93.040286085970    536.3093      0.0000
    ----------------------------------------------------

*** PSI4 exiting successfully. Buy a developer a beer!
